,sc_id,supercon_formula,cleaned_formula,material_dict,highest_Tc,average_Tc,std_Tc,entry_count,composition
1359,[22918],Ba0.5K0.5Fe1.7Co0.3As2,Ba0.5K0.5Fe1.7Co0.3As2,"{'As': 2.0, 'Ba': 0.5, 'Co': 0.30000000000000004, 'Fe': 1.7000000000000002, 'K': 0.5}",13.56,13.56,0.0,1,Ba0.5 K0.5 Fe1.7 Co0.3 As2
1360,[22909],Ba0.5K0.5Fe1.9Cu0.1As2,Ba0.5K0.5Fe1.9Cu0.1As2,"{'As': 2.0, 'Ba': 0.5, 'Cu': 0.1, 'Fe': 1.9, 'K': 0.5}",22.29,22.29,0.0,1,Ba0.5 K0.5 Fe1.9 Cu0.1 As2
1361,[22912],Ba0.5K0.5Fe1.8Cu0.2As2,Ba0.5K0.5Fe1.8Cu0.2As2,"{'As': 2.0, 'Ba': 0.5, 'Cu': 0.2, 'Fe': 1.8, 'K': 0.5}",11.83,11.83,0.0,1,Ba0.5 K0.5 Fe1.8 Cu0.2 As2
1362,[22914],Ba0.5K0.5Fe1.7Ni0.3As2,Ba0.5K0.5Fe1.7Ni0.3As2,"{'As': 2.0, 'Ba': 0.5, 'Fe': 1.7000000000000002, 'K': 0.5, 'Ni': 0.30000000000000004}",5.1,5.1,0.0,1,Ba0.5 K0.5 Fe1.7 Ni0.3 As2
1363,[22916],Ba0.5K0.5Fe1.7Zn0.3As2,Ba0.5K0.5Fe1.7Zn0.3As2,"{'As': 2.0, 'Ba': 0.5, 'Fe': 1.7000000000000002, 'K': 0.5, 'Zn': 0.30000000000000004}",7.86,7.86,0.0,1,Ba0.5 K0.5 Fe1.7 Zn0.3 As2
1364,[22913],Ba0.5K0.5Fe1.8Ni0.2As2,Ba0.5K0.5Fe1.8Ni0.2As2,"{'As': 2.0, 'Ba': 0.5, 'Fe': 1.8, 'K': 0.5, 'Ni': 0.2}",11.1,11.1,0.0,1,Ba0.5 K0.5 Fe1.8 Ni0.2 As2
1365,[22919],Ba0.5K0.5Fe1.8Ru0.2As2,Ba0.5K0.5Fe1.8Ru0.2As2,"{'As': 2.0, 'Ba': 0.5, 'Fe': 1.8, 'K': 0.5, 'Ru': 0.2}",36.5,36.5,0.0,1,Ba0.5 K0.5 Fe1.8 Ru0.2 As2
1366,"[21599, 22915]",Ba0.5K0.5Fe1.8Zn0.2As2,Ba0.5K0.5Fe1.8Zn0.2As2,"{'As': 2.0, 'Ba': 0.5, 'Fe': 1.8, 'K': 0.5, 'Zn': 0.2}",34.3,26.3,8.0,2,Ba0.5 K0.5 Fe1.8 Zn0.2 As2
1367,[21595],Ba0.5K0.5Fe1.84Mn0.16As2,Ba0.5K0.5Fe1.84Mn0.16As2,"{'As': 2.0, 'Ba': 0.5, 'Fe': 1.8399999999999999, 'K': 0.5, 'Mn': 0.16}",0.0,0.0,0.0,1,Ba0.5 K0.5 Fe1.84 Mn0.16 As2
1368,[21598],Ba0.5K0.5Fe1.84Zn0.16As2,Ba0.5K0.5Fe1.84Zn0.16As2,"{'As': 2.0, 'Ba': 0.5, 'Fe': 1.8399999999999999, 'K': 0.5, 'Zn': 0.16}",34.2,34.2,0.0,1,Ba0.5 K0.5 Fe1.84 Zn0.16 As2
1369,[21597],Ba0.5K0.5Fe1.88Zn0.12As2,Ba0.5K0.5Fe1.88Zn0.12As2,"{'As': 2.0, 'Ba': 0.5, 'Fe': 1.88, 'K': 0.5, 'Zn': 0.12}",33.5,33.5,0.0,1,Ba0.5 K0.5 Fe1.88 Zn0.12 As2
1370,[22905],Ba0.5K0.5Fe1.9Mn0.1As2,Ba0.5K0.5Fe1.9Mn0.1As2,"{'As': 2.0, 'Ba': 0.5, 'Fe': 1.9, 'K': 0.5, 'Mn': 0.1}",9.53,9.53,0.0,1,Ba0.5 K0.5 Fe1.9 Mn0.1 As2
1371,[22908],Ba0.5K0.5Fe1.9Ni0.1As2,Ba0.5K0.5Fe1.9Ni0.1As2,"{'As': 2.0, 'Ba': 0.5, 'Fe': 1.9, 'K': 0.5, 'Ni': 0.1}",26.75,26.75,0.0,1,Ba0.5 K0.5 Fe1.9 Ni0.1 As2
1372,[22906],Ba0.5K0.5Fe1.9Ru0.1As2,Ba0.5K0.5Fe1.9Ru0.1As2,"{'As': 2.0, 'Ba': 0.5, 'Fe': 1.9, 'K': 0.5, 'Ru': 0.1}",37.14,37.14,0.0,1,Ba0.5 K0.5 Fe1.9 Ru0.1 As2
1373,[22910],Ba0.5K0.5Fe1.9Zn0.1As2,Ba0.5K0.5Fe1.9Zn0.1As2,"{'As': 2.0, 'Ba': 0.5, 'Fe': 1.9, 'K': 0.5, 'Zn': 0.1}",30.15,30.15,0.0,1,Ba0.5 K0.5 Fe1.9 Zn0.1 As2
1374,[21594],Ba0.5K0.5Fe1.92Mn0.08As2,Ba0.5K0.5Fe1.92Mn0.08As2,"{'As': 2.0, 'Ba': 0.5, 'Fe': 1.92, 'K': 0.5, 'Mn': 0.08}",15.0,15.0,0.0,1,Ba0.5 K0.5 Fe1.92 Mn0.08 As2
1375,[21596],Ba0.5K0.5Fe1.92Zn0.08As2,Ba0.5K0.5Fe1.92Zn0.08As2,"{'As': 2.0, 'Ba': 0.5, 'Fe': 1.92, 'K': 0.5, 'Zn': 0.08}",34.3,34.3,0.0,1,Ba0.5 K0.5 Fe1.92 Zn0.08 As2
1376,"[21593, 22911]",Ba0.5K0.5Fe1.96Mn0.04As2,Ba0.5K0.5Fe1.96Mn0.04As2,"{'As': 2.0, 'Ba': 0.5, 'Fe': 1.96, 'K': 0.5, 'Mn': 0.04}",28.4,25.85,2.55,2,Ba0.5 K0.5 Fe1.96 Mn0.04 As2
1377,"[21125, 21128, 21436, 21592, 21785, 22904, 23233]",Ba0.5K0.5Fe2As2,Ba0.5K0.5Fe2As2,"{'As': 2.0, 'Ba': 0.5, 'Fe': 2.0, 'K': 0.5}",37.78,34.8114285714,2.1074522775,7,Ba0.5 K0.5 Fe2 As2
1378,[20564],Ba0.5K0.5Fe2As2O1,Ba0.5K0.5Fe2As2O1,"{'As': 2.0, 'Ba': 0.5, 'Fe': 2.0, 'K': 0.5, 'O': 1.0}",36.0,36.0,0.0,1,Ba0.5 K0.5 Fe2 As2 O1
1379,"[23563, 25203]",Ba0.5Na0.5Fe2As2,Ba0.5Na0.5Fe2As2,"{'As': 2.0, 'Ba': 0.5, 'Fe': 2.0, 'Na': 0.5}",33.2,33.0,0.2,2,Ba0.5 Na0.5 Fe2 As2
1380,[21940],Ba0.511K0.489Fe1.772Co0.228As2,Ba0.511K0.489Fe1.772Co0.228As2,"{'As': 2.0, 'Ba': 0.511, 'Co': 0.228, 'Fe': 1.772, 'K': 0.489}",22.0,22.0,0.0,1,Ba0.511 K0.489 Fe1.772 Co0.228 As2
1381,[22928],Ba0.55K0.45Fe1.95Co0.05As2,Ba0.55K0.45Fe1.95Co0.05As2,"{'As': 2.0, 'Ba': 0.55, 'Co': 0.05, 'Fe': 1.9500000000000002, 'K': 0.45}",32.5,32.5,0.0,1,Ba0.55 K0.45 Fe1.95 Co0.05 As2
1382,"[20627, 20807, 21126, 21344]",Ba0.55K0.45Fe2As2,Ba0.55K0.45Fe2As2,"{'As': 2.0, 'Ba': 0.55, 'Fe': 2.0, 'K': 0.45}",32.0,30.1625,1.0685124005,4,Ba0.55 K0.45 Fe2 As2
1383,[25043],Ba0.58K0.42Fe2As2,Ba0.58K0.42Fe2As2,"{'As': 2.0, 'Ba': 0.58, 'Fe': 2.0, 'K': 0.42}",37.4,37.4,0.0,1,Ba0.58 K0.42 Fe2 As2
1384,[24466],Ba0.59K0.41Fe2As2,Ba0.59K0.41Fe2As2,"{'As': 2.0, 'Ba': 0.59, 'Fe': 2.0, 'K': 0.41000000000000003}",36.9,36.9,0.0,1,Ba0.59 K0.41 Fe2 As2
1385,"[20563, 20565, 20653, 20858, 20859, 20927, 20940, 20992, 21087, 21127, 21407, 21410, 21435, 21601, 21784, 21907, 23099, 23232, 23463, 25248, 25355, 25356]",Ba0.6K0.4Fe2As2,Ba0.6K0.4Fe2As2,"{'As': 2.0, 'Ba': 0.6000000000000001, 'Fe': 2.0, 'K': 0.4}",39.0,36.3709090909,2.5417512021,22,Ba0.6 K0.4 Fe2 As2
1386,"[23562, 24589, 25202]",Ba0.6Na0.4Fe2As2,Ba0.6Na0.4Fe2As2,"{'As': 2.0, 'Ba': 0.6000000000000001, 'Fe': 2.0, 'Na': 0.4}",34.2,33.9666666667,0.2054804668,3,Ba0.6 Na0.4 Fe2 As2
1387,[22547],Ba0.6Rb0.4Fe2As2,Ba0.6Rb0.4Fe2As2,"{'As': 2.0, 'Ba': 0.6000000000000001, 'Fe': 2.0, 'Rb': 0.4}",34.0,34.0,0.0,1,Ba0.6 Rb0.4 Fe2 As2
1388,[25047],Ba0.61K0.39Fe2As2,Ba0.61K0.39Fe2As2,"{'As': 2.0, 'Ba': 0.61, 'Fe': 2.0, 'K': 0.39}",38.6,38.6,0.0,1,Ba0.61 K0.39 Fe2 As2
1389,[23299],Ba0.63K0.37Fe2As2,Ba0.63K0.37Fe2As2,"{'As': 2.0, 'Ba': 0.63, 'Fe': 2.0, 'K': 0.37}",39.0,39.0,0.0,1,Ba0.63 K0.37 Fe2 As2
1390,[23965],Ba0.64K0.34Fe2As2,Ba0.64K0.34Fe2As2,"{'As': 2.0, 'Ba': 0.64, 'Fe': 2.0, 'K': 0.34}",39.0,39.0,0.0,1,Ba0.64 K0.34 Fe2 As2
1391,[20877],Ba0.64K0.36Fe2As2,Ba0.64K0.36Fe2As2,"{'As': 2.0, 'Ba': 0.64, 'Fe': 2.0, 'K': 0.36}",25.6,25.6,0.0,1,Ba0.64 K0.36 Fe2 As2
1392,[24588],Ba0.64Na0.36Fe2As2,Ba0.64Na0.36Fe2As2,"{'As': 2.0, 'Ba': 0.64, 'Fe': 2.0, 'Na': 0.36}",31.0,31.0,0.0,1,Ba0.64 Na0.36 Fe2 As2
1393,[24592],Ba0.65K0.35Fe2As2,Ba0.65K0.35Fe2As2,"{'As': 2.0, 'Ba': 0.65, 'Fe': 2.0, 'K': 0.35000000000000003}",38.0,38.0,0.0,1,Ba0.65 K0.35 Fe2 As2
1394,"[22572, 23561]",Ba0.65Na0.35Fe2As2,Ba0.65Na0.35Fe2As2,"{'As': 2.0, 'Ba': 0.65, 'Fe': 2.0, 'Na': 0.35000000000000003}",33.1,31.25,1.85,2,Ba0.65 Na0.35 Fe2 As2
1395,[22546],Ba0.65Rb0.35Fe2As2,Ba0.65Rb0.35Fe2As2,"{'As': 2.0, 'Ba': 0.65, 'Fe': 2.0, 'Rb': 0.35000000000000003}",35.8,35.8,0.0,1,Ba0.65 Rb0.35 Fe2 As2
1396,[21938],Ba0.66K0.34Fe1.8Co0.2As2,Ba0.66K0.34Fe1.8Co0.2As2,"{'As': 2.0, 'Ba': 0.66, 'Co': 0.2, 'Fe': 1.8, 'K': 0.34}",19.0,19.0,0.0,1,Ba0.66 K0.34 Fe1.8 Co0.2 As2
1397,"[24951, 25046]",Ba0.66K0.34Fe2As2,Ba0.66K0.34Fe2As2,"{'As': 2.0, 'Ba': 0.66, 'Fe': 2.0, 'K': 0.34}",38.9,38.2,0.7000000000000001,2,Ba0.66 K0.34 Fe2 As2
1398,[24874],Ba0.663K0.337Fe2As2,Ba0.663K0.337Fe2As2,"{'As': 2.0, 'Ba': 0.663, 'Fe': 2.0, 'K': 0.337}",38.0,38.0,0.0,1,Ba0.663 K0.337 Fe2 As2
1399,[24870],Ba0.677K0.323Fe2As2,Ba0.677K0.323Fe2As2,"{'As': 2.0, 'Ba': 0.677, 'Fe': 2.0, 'K': 0.323}",37.0,37.0,0.0,1,Ba0.677 K0.323 Fe2 As2
1400,[21939],Ba0.68K0.32Fe1.954Co0.046As2,Ba0.68K0.32Fe1.954Co0.046As2,"{'As': 2.0, 'Ba': 0.68, 'Co': 0.046, 'Fe': 1.9540000000000002, 'K': 0.32}",35.0,35.0,0.0,1,Ba0.68 K0.32 Fe1.954 Co0.046 As2
1401,"[21753, 22994, 23964]",Ba0.68K0.32Fe2As2,Ba0.68K0.32Fe2As2,"{'As': 2.0, 'Ba': 0.68, 'Fe': 2.0, 'K': 0.32}",38.5,38.0,0.7071067812,3,Ba0.68 K0.32 Fe2 As2
1402,[24587],Ba0.68Na0.32Fe2As2,Ba0.68Na0.32Fe2As2,"{'As': 2.0, 'Ba': 0.68, 'Fe': 2.0, 'Na': 0.32}",23.8,23.8,0.0,1,Ba0.68 Na0.32 Fe2 As2
1403,[21937],Ba0.694K0.306Fe1.826Co0.174As2,Ba0.694K0.306Fe1.826Co0.174As2,"{'As': 2.0, 'Ba': 0.6940000000000001, 'Co': 0.17400000000000002, 'Fe': 1.826, 'K': 0.306}",18.0,18.0,0.0,1,Ba0.694 K0.306 Fe1.826 Co0.174 As2
1404,[24586],Ba0.698Na0.302Fe2As2,Ba0.698Na0.302Fe2As2,"{'As': 2.0, 'Ba': 0.6980000000000001, 'Fe': 2.0, 'Na': 0.302}",18.0,18.0,0.0,1,Ba0.698 Na0.302 Fe2 As2
1405,[21932],Ba0.7K0.3Fe1.72Co0.28As2,Ba0.7K0.3Fe1.72Co0.28As2,"{'As': 2.0, 'Ba': 0.7000000000000001, 'Co': 0.28, 'Fe': 1.72, 'K': 0.30000000000000004}",12.0,12.0,0.0,1,Ba0.7 K0.3 Fe1.72 Co0.28 As2
1406,[21931],Ba0.7K0.3Fe1.66Co0.34As2,Ba0.7K0.3Fe1.66Co0.34As2,"{'As': 2.0, 'Ba': 0.7000000000000001, 'Co': 0.34, 'Fe': 1.6600000000000001, 'K': 0.30000000000000004}",12.0,12.0,0.0,1,Ba0.7 K0.3 Fe1.66 Co0.34 As2
1407,"[21090, 21434, 23098, 23231]",Ba0.7K0.3Fe2As2,Ba0.7K0.3Fe2As2,"{'As': 2.0, 'Ba': 0.7000000000000001, 'Fe': 2.0, 'K': 0.30000000000000004}",37.5,36.85,0.6264982043,4,Ba0.7 K0.3 Fe2 As2
1408,"[23560, 25201]",Ba0.7Na0.3Fe2As2,Ba0.7Na0.3Fe2As2,"{'As': 2.0, 'Ba': 0.7000000000000001, 'Fe': 2.0, 'Na': 0.30000000000000004}",25.8,24.8,1.0,2,Ba0.7 Na0.3 Fe2 As2
1409,[22545],Ba0.7Rb0.3Fe2As2,Ba0.7Rb0.3Fe2As2,"{'As': 2.0, 'Ba': 0.7000000000000001, 'Fe': 2.0, 'Rb': 0.30000000000000004}",36.9,36.9,0.0,1,Ba0.7 Rb0.3 Fe2 As2
1410,"[21357, 21604, 22306, 23230, 25247]",Ba0.72K0.28Fe2As2,Ba0.72K0.28Fe2As2,"{'As': 2.0, 'Ba': 0.72, 'Fe': 2.0, 'K': 0.28}",36.7,33.12,2.2391069648,5,Ba0.72 K0.28 Fe2 As2
1411,[24591],Ba0.737K0.263Fe2As2,Ba0.737K0.263Fe2As2,"{'As': 2.0, 'Ba': 0.737, 'Fe': 2.0, 'K': 0.263}",24.0,24.0,0.0,1,Ba0.737 K0.263 Fe2 As2
1412,[23963],Ba0.74K0.26Fe2As2,Ba0.74K0.26Fe2As2,"{'As': 2.0, 'Ba': 0.74, 'Fe': 2.0, 'K': 0.26}",32.0,32.0,0.0,1,Ba0.74 K0.26 Fe2 As2
1413,"[21356, 21603, 23229, 23298, 25246]",Ba0.75K0.25Fe2As2,Ba0.75K0.25Fe2As2,"{'As': 2.0, 'Ba': 0.75, 'Fe': 2.0, 'K': 0.25}",31.0,28.26,1.628004914,5,Ba0.75 K0.25 Fe2 As2
1414,[23228],Ba0.76K0.24Fe2As2,Ba0.76K0.24Fe2As2,"{'As': 2.0, 'Ba': 0.76, 'Fe': 2.0, 'K': 0.24}",26.0,26.0,0.0,1,Ba0.76 K0.24 Fe2 As2
1415,[24239],Ba0.76La0.24Fe2As2,Ba0.76La0.24Fe2As2,"{'As': 2.0, 'Ba': 0.76, 'Fe': 2.0, 'La': 0.24}",5.02,5.02,0.0,1,Ba0.76 La0.24 Fe2 As2
1416,[23559],Ba0.76Na0.24Fe2As2,Ba0.76Na0.24Fe2As2,"{'As': 2.0, 'Ba': 0.76, 'Fe': 2.0, 'Na': 0.24}",15.9,15.9,0.0,1,Ba0.76 Na0.24 Fe2 As2
1417,[24950],Ba0.765K0.235Fe2As2,Ba0.765K0.235Fe2As2,"{'As': 2.0, 'Ba': 0.765, 'Fe': 2.0, 'K': 0.23500000000000001}",20.5,20.5,0.0,1,Ba0.765 K0.235 Fe2 As2
1418,"[21602, 22993, 25042, 25245]",Ba0.77K0.23Fe2As2,Ba0.77K0.23Fe2As2,"{'As': 2.0, 'Ba': 0.77, 'Fe': 2.0, 'K': 0.23}",24.4,22.075,3.2383444845,4,Ba0.77 K0.23 Fe2 As2
1419,[24585],Ba0.779Na0.221Fe2As2,Ba0.779Na0.221Fe2As2,"{'As': 2.0, 'Ba': 0.779, 'Fe': 2.0, 'Na': 0.221}",8.0,8.0,0.0,1,Ba0.779 Na0.221 Fe2 As2
1420,"[23227, 25045]",Ba0.78K0.22Fe2As2,Ba0.78K0.22Fe2As2,"{'As': 2.0, 'Ba': 0.78, 'Fe': 2.0, 'K': 0.22}",24.8,24.15,0.65,2,Ba0.78 K0.22 Fe2 As2
1421,[24876],Ba0.788K0.212Fe2As2,Ba0.788K0.212Fe2As2,"{'As': 2.0, 'Ba': 0.788, 'Fe': 2.0, 'K': 0.212}",19.0,19.0,0.0,1,Ba0.788 K0.212 Fe2 As2
1422,"[23226, 23240]",Ba0.79K0.21Fe2As2,Ba0.79K0.21Fe2As2,"{'As': 2.0, 'Ba': 0.79, 'Fe': 2.0, 'K': 0.21}",18.0,18.0,0.0,2,Ba0.79 K0.21 Fe2 As2
1423,[24873],Ba0.797K0.203Fe2As2,Ba0.797K0.203Fe2As2,"{'As': 2.0, 'Ba': 0.797, 'Fe': 2.0, 'K': 0.203}",17.0,17.0,0.0,1,Ba0.797 K0.203 Fe2 As2
1424,"[21089, 21268, 23097, 23225, 23297]",Ba0.8K0.2Fe2As2,Ba0.8K0.2Fe2As2,"{'As': 2.0, 'Ba': 0.8, 'Fe': 2.0, 'K': 0.2}",25.3,19.036,6.4992602656,5,Ba0.8 K0.2 Fe2 As2
1425,"[23558, 25200]",Ba0.8Na0.2Fe2As2,Ba0.8Na0.2Fe2As2,"{'As': 2.0, 'Ba': 0.8, 'Fe': 2.0, 'Na': 0.2}",15.2,13.5,1.7000000000000002,2,Ba0.8 Na0.2 Fe2 As2
1426,[21936],Ba0.805K0.195Fe1.738Co0.262As2,Ba0.805K0.195Fe1.738Co0.262As2,"{'As': 2.0, 'Ba': 0.805, 'Co': 0.262, 'Fe': 1.738, 'K': 0.195}",14.0,14.0,0.0,1,Ba0.805 K0.195 Fe1.738 Co0.262 As2
1427,[24869],Ba0.805K0.195Fe2As2,Ba0.805K0.195Fe2As2,"{'As': 2.0, 'Ba': 0.805, 'Fe': 2.0, 'K': 0.195}",15.0,15.0,0.0,1,Ba0.805 K0.195 Fe2 As2
1428,[24949],Ba0.807K0.193Fe2As2,Ba0.807K0.193Fe2As2,"{'As': 2.0, 'Ba': 0.807, 'Fe': 2.0, 'K': 0.193}",17.2,17.2,0.0,1,Ba0.807 K0.193 Fe2 As2
1429,"[23239, 23961, 23962]",Ba0.81K0.19Fe2As2,Ba0.81K0.19Fe2As2,"{'As': 2.0, 'Ba': 0.81, 'Fe': 2.0, 'K': 0.19}",15.0,12.7333333333,2.5315783395,3,Ba0.81 K0.19 Fe2 As2
1430,[24872],Ba0.812K0.188Fe2As2,Ba0.812K0.188Fe2As2,"{'As': 2.0, 'Ba': 0.812, 'Fe': 2.0, 'K': 0.188}",13.0,13.0,0.0,1,Ba0.812 K0.188 Fe2 As2
1431,[24875],Ba0.816K0.184Fe2As2,Ba0.816K0.184Fe2As2,"{'As': 2.0, 'Ba': 0.8160000000000001, 'Fe': 2.0, 'K': 0.184}",12.0,12.0,0.0,1,Ba0.816 K0.184 Fe2 As2
1432,[24584],Ba0.818Na0.182Fe2As2,Ba0.818Na0.182Fe2As2,"{'As': 2.0, 'Ba': 0.8180000000000001, 'Fe': 2.0, 'Na': 0.182}",6.4,6.4,0.0,1,Ba0.818 Na0.182 Fe2 As2
1433,[21935],Ba0.82K0.18Fe1.654Co0.346As2,Ba0.82K0.18Fe1.654Co0.346As2,"{'As': 2.0, 'Ba': 0.8200000000000001, 'Co': 0.34600000000000003, 'Fe': 1.654, 'K': 0.18}",11.0,11.0,0.0,1,Ba0.82 K0.18 Fe1.654 Co0.346 As2
1434,[23238],Ba0.82K0.18Fe2As2,Ba0.82K0.18Fe2As2,"{'As': 2.0, 'Ba': 0.8200000000000001, 'Fe': 2.0, 'K': 0.18}",10.5,10.5,0.0,1,Ba0.82 K0.18 Fe2 As2
1435,[24238],Ba0.82La0.18Fe2As2,Ba0.82La0.18Fe2As2,"{'As': 2.0, 'Ba': 0.8200000000000001, 'Fe': 2.0, 'La': 0.18}",14.8,14.8,0.0,1,Ba0.82 La0.18 Fe2 As2
1436,[24222],Ba0.82Pr0.18Fe2As2,Ba0.82Pr0.18Fe2As2,"{'As': 2.0, 'Ba': 0.8200000000000001, 'Fe': 2.0, 'Pr': 0.18}",6.2,6.2,0.0,1,Ba0.82 Pr0.18 Fe2 As2
1437,[24868],Ba0.823K0.177Fe2As2,Ba0.823K0.177Fe2As2,"{'As': 2.0, 'Ba': 0.8230000000000001, 'Fe': 2.0, 'K': 0.177}",10.0,10.0,0.0,1,Ba0.823 K0.177 Fe2 As2
1438,[23224],Ba0.825K0.175Fe2As2,Ba0.825K0.175Fe2As2,"{'As': 2.0, 'Ba': 0.8250000000000001, 'Fe': 2.0, 'K': 0.17500000000000002}",10.0,10.0,0.0,1,Ba0.825 K0.175 Fe2 As2
1439,[24871],Ba0.83K0.17Fe2As2,Ba0.83K0.17Fe2As2,"{'As': 2.0, 'Ba': 0.8300000000000001, 'Fe': 2.0, 'K': 0.17}",8.0,8.0,0.0,1,Ba0.83 K0.17 Fe2 As2
1440,[24948],Ba0.832K0.168Fe2As2,Ba0.832K0.168Fe2As2,"{'As': 2.0, 'Ba': 0.8320000000000001, 'Fe': 2.0, 'K': 0.168}",7.74,7.74,0.0,1,Ba0.832 K0.168 Fe2 As2
1441,[24867],Ba0.833K0.167Fe2As2,Ba0.833K0.167Fe2As2,"{'As': 2.0, 'Ba': 0.833, 'Fe': 2.0, 'K': 0.167}",7.0,7.0,0.0,1,Ba0.833 K0.167 Fe2 As2
1442,"[23237, 24590]",Ba0.84K0.16Fe2As2,Ba0.84K0.16Fe2As2,"{'As': 2.0, 'Ba': 0.84, 'Fe': 2.0, 'K': 0.16}",7.3,6.42,0.88,2,Ba0.84 K0.16 Fe2 As2
1443,[21007],Ba0.84Rb0.1Sn0.09Fe2As2,Ba0.84Rb0.1Sn0.09Fe2As2,"{'As': 2.0, 'Ba': 0.84, 'Fe': 2.0, 'Rb': 0.1, 'Sn': 0.09}",22.6,22.6,0.0,1,Ba0.84 Rb0.1 Sn0.09 Fe2 As2
1444,[24220],Ba0.85Ce0.15Fe2As2,Ba0.85Ce0.15Fe2As2,"{'As': 2.0, 'Ba': 0.85, 'Ce': 0.15, 'Fe': 2.0}",13.4,13.4,0.0,1,Ba0.85 Ce0.15 Fe2 As2
1445,"[23223, 23296, 24627]",Ba0.85K0.15Fe2As2,Ba0.85K0.15Fe2As2,"{'As': 2.0, 'Ba': 0.85, 'Fe': 2.0, 'K': 0.15}",18.0,11.3333333333,5.7348835114,3,Ba0.85 K0.15 Fe2 As2
1446,"[23557, 25199]",Ba0.85Na0.15Fe2As2,Ba0.85Na0.15Fe2As2,"{'As': 2.0, 'Ba': 0.85, 'Fe': 2.0, 'Na': 0.15}",5.3,3.35,1.9500000000000002,2,Ba0.85 Na0.15 Fe2 As2
1447,[21934],Ba0.86K0.14Fe1.68Co0.32As2,Ba0.86K0.14Fe1.68Co0.32As2,"{'As': 2.0, 'Ba': 0.86, 'Co': 0.32, 'Fe': 1.6800000000000002, 'K': 0.14}",11.0,11.0,0.0,1,Ba0.86 K0.14 Fe1.68 Co0.32 As2
1448,[24237],Ba0.86La0.14Fe2As2,Ba0.86La0.14Fe2As2,"{'As': 2.0, 'Ba': 0.86, 'Fe': 2.0, 'La': 0.14}",22.7,22.7,0.0,1,Ba0.86 La0.14 Fe2 As2
1449,[24223],Ba0.87Nd0.13Fe2As2,Ba0.87Nd0.13Fe2As2,"{'As': 2.0, 'Ba': 0.87, 'Fe': 2.0, 'Nd': 0.13}",4.76,4.76,0.0,1,Ba0.87 Nd0.13 Fe2 As2
1450,[23295],Ba0.88K0.12Fe2As2,Ba0.88K0.12Fe2As2,"{'As': 2.0, 'Ba': 0.88, 'Fe': 2.0, 'K': 0.12}",10.0,10.0,0.0,1,Ba0.88 K0.12 Fe2 As2
1451,[24221],Ba0.88La0.12Fe2As2,Ba0.88La0.12Fe2As2,"{'As': 2.0, 'Ba': 0.88, 'Fe': 2.0, 'La': 0.12}",22.4,22.4,0.0,1,Ba0.88 La0.12 Fe2 As2
1452,"[21088, 23294]",Ba0.9K0.1Fe2As2,Ba0.9K0.1Fe2As2,"{'As': 2.0, 'Ba': 0.9, 'Fe': 2.0, 'K': 0.1}",5.5,5.25,0.25,2,Ba0.9 K0.1 Fe2 As2
1453,[23793],Ba0.9Rb0.1Fe2As2,Ba0.9Rb0.1Fe2As2,"{'As': 2.0, 'Ba': 0.9, 'Fe': 2.0, 'Rb': 0.1}",23.3,23.3,0.0,1,Ba0.9 Rb0.1 Fe2 As2
1454,[24064],Ba0.9Yb0.1Fe2As2,Ba0.9Yb0.1Fe2As2,"{'As': 2.0, 'Ba': 0.9, 'Fe': 2.0, 'Yb': 0.1}",20.0,20.0,0.0,1,Ba0.9 Yb0.1 Fe2 As2
1455,[24219],Ba0.91Ce0.09Fe2As2,Ba0.91Ce0.09Fe2As2,"{'As': 2.0, 'Ba': 0.91, 'Ce': 0.09, 'Fe': 2.0}",4.12,4.12,0.0,1,Ba0.91 Ce0.09 Fe2 As2
1456,[24236],Ba0.91La0.09Fe2As2,Ba0.91La0.09Fe2As2,"{'As': 2.0, 'Ba': 0.91, 'Fe': 2.0, 'La': 0.09}",7.76,7.76,0.0,1,Ba0.91 La0.09 Fe2 As2
1457,[21933],Ba0.95K0.05Fe1.782Co0.212As2,Ba0.95K0.05Fe1.782Co0.212As2,"{'As': 2.0, 'Ba': 0.9500000000000001, 'Co': 0.212, 'Fe': 1.782, 'K': 0.05}",16.0,16.0,0.0,1,Ba0.95 K0.05 Fe1.782 Co0.212 As2
1458,[21854],Ba1Fe1.906Co0.042Cu0.052As2,Ba1Fe1.906Co0.042Cu0.052As2,"{'As': 2.0, 'Ba': 1.0, 'Co': 0.042, 'Cu': 0.052000000000000005, 'Fe': 1.9060000000000001}",11.6,11.6,0.0,1,Ba1 Fe1.906 Co0.042 Cu0.052 As2
1459,[21855],Ba1Fe1.894Co0.042Cu0.064As2,Ba1Fe1.894Co0.042Cu0.064As2,"{'As': 2.0, 'Ba': 1.0, 'Co': 0.042, 'Cu': 0.064, 'Fe': 1.8940000000000001}",9.6,9.6,0.0,1,Ba1 Fe1.894 Co0.042 Cu0.064 As2
1460,[21856],Ba1Fe1.872Co0.042Cu0.086As2,Ba1Fe1.872Co0.042Cu0.086As2,"{'As': 2.0, 'Ba': 1.0, 'Co': 0.042, 'Cu': 0.08600000000000001, 'Fe': 1.8719999999999999}",4.3,4.3,0.0,1,Ba1 Fe1.872 Co0.042 Cu0.086 As2
1461,[21852],Ba1Fe1.936Co0.044Cu0.02As2,Ba1Fe1.936Co0.044Cu0.02As2,"{'As': 2.0, 'Ba': 1.0, 'Co': 0.044, 'Cu': 0.02, 'Fe': 1.936}",2.35,2.35,0.0,1,Ba1 Fe1.936 Co0.044 Cu0.02 As2
1462,[21853],Ba1Fe1.918Co0.044Cu0.038As2,Ba1Fe1.918Co0.044Cu0.038As2,"{'As': 2.0, 'Ba': 1.0, 'Co': 0.044, 'Cu': 0.038, 'Fe': 1.9180000000000001}",8.7,8.7,0.0,1,Ba1 Fe1.918 Co0.044 Cu0.038 As2
1463,[23599],Ba1Fe1.926Co0.074As2,Ba1Fe1.926Co0.074As2,"{'As': 2.0, 'Ba': 1.0, 'Co': 0.074, 'Fe': 1.9260000000000002}",6.2,6.2,0.0,1,Ba1 Fe1.926 Co0.074 As2
1464,"[20942, 20957, 21255, 21817, 21818, 23251]",Ba1Fe1.924Co0.076As2,Ba1Fe1.924Co0.076As2,"{'As': 2.0, 'Ba': 1.0, 'Co': 0.076, 'Fe': 1.924}",14.2,9.505,2.8299808598,6,Ba1 Fe1.924 Co0.076 As2
1465,"[20955, 22597, 23600]",Ba1Fe1.92Co0.08As2,Ba1Fe1.92Co0.08As2,"{'As': 2.0, 'Ba': 1.0, 'Co': 0.08, 'Fe': 1.92}",11.0,7.8333333333,2.2691163233,3,Ba1 Fe1.92 Co0.08 As2
1466,[21819],Ba1Fe1.916Co0.084As2,Ba1Fe1.916Co0.084As2,"{'As': 2.0, 'Ba': 1.0, 'Co': 0.084, 'Fe': 1.916}",15.5,15.5,0.0,1,Ba1 Fe1.916 Co0.084 As2
1467,[22817],Ba1Fe1.79Zn0.12Co0.09As2,Ba1Fe1.79Zn0.12Co0.09As2,"{'As': 2.0, 'Ba': 1.0, 'Co': 0.09, 'Fe': 1.79, 'Zn': 0.12}",3.37,3.37,0.0,1,Ba1 Fe1.79 Zn0.12 Co0.09 As2
1468,[22812],Ba1Fe1.83Zn0.08Co0.09As2,Ba1Fe1.83Zn0.08Co0.09As2,"{'As': 2.0, 'Ba': 1.0, 'Co': 0.09, 'Fe': 1.83, 'Zn': 0.08}",7.54,7.54,0.0,1,Ba1 Fe1.83 Zn0.08 Co0.09 As2
1469,[22811],Ba1Fe1.87Zn0.04Co0.09As2,Ba1Fe1.87Zn0.04Co0.09As2,"{'As': 2.0, 'Ba': 1.0, 'Co': 0.09, 'Fe': 1.87, 'Zn': 0.04}",13.42,13.42,0.0,1,Ba1 Fe1.87 Zn0.04 Co0.09 As2
1470,"[20874, 22027, 22810]",Ba1Fe1.91Co0.09As2,Ba1Fe1.91Co0.09As2,"{'As': 2.0, 'Ba': 1.0, 'Co': 0.09, 'Fe': 1.9100000000000001}",16.76,15.4533333333,0.955870749,3,Ba1 Fe1.91 Co0.09 As2
1471,[21859],Ba1Fe1.868Co0.094Cu0.038As2,Ba1Fe1.868Co0.094Cu0.038As2,"{'As': 2.0, 'Ba': 1.0, 'Co': 0.094, 'Cu': 0.038, 'Fe': 1.8679999999999999}",15.55,15.55,0.0,1,Ba1 Fe1.868 Co0.094 Cu0.038 As2
1472,[21860],Ba1Fe1.838Co0.094Cu0.068As2,Ba1Fe1.838Co0.094Cu0.068As2,"{'As': 2.0, 'Ba': 1.0, 'Co': 0.094, 'Cu': 0.068, 'Fe': 1.838}",5.3,5.3,0.0,1,Ba1 Fe1.838 Co0.094 Cu0.068 As2
1473,"[20958, 21220, 21256, 21820, 21821, 21857, 23252]",Ba1Fe1.906Co0.094As2,Ba1Fe1.906Co0.094As2,"{'As': 2.0, 'Ba': 1.0, 'Co': 0.094, 'Fe': 1.9060000000000001}",20.0,17.4642857143,1.5722400502,7,Ba1 Fe1.906 Co0.094 As2
1474,[21492],Ba1Fe1.904Co0.096As2,Ba1Fe1.904Co0.096As2,"{'As': 2.0, 'Ba': 1.0, 'Co': 0.096, 'Fe': 1.904}",17.1,17.1,0.0,1,Ba1 Fe1.904 Co0.096 As2
1475,[22653],Ba1Fe1.902Co0.098As2,Ba1Fe1.902Co0.098As2,"{'As': 2.0, 'Ba': 1.0, 'Co': 0.098, 'Fe': 1.9020000000000001}",15.8,15.8,0.0,1,Ba1 Fe1.902 Co0.098 As2
1476,[22598],Ba1Fe1.9Co0.1As2,Ba1Fe1.9Co0.1As2,"{'As': 2.0, 'Ba': 1.0, 'Co': 0.1, 'Fe': 1.9}",19.5,19.5,0.0,1,Ba1 Fe1.9 Co0.1 As2
1477,[21858],Ba1Fe1.889Co0.102Cu0.009As2,Ba1Fe1.889Co0.102Cu0.009As2,"{'As': 2.0, 'Ba': 1.0, 'Co': 0.10200000000000001, 'Cu': 0.009000000000000001, 'Fe': 1.889}",20.95,20.95,0.0,1,Ba1 Fe1.889 Co0.102 Cu0.009 As2
1478,[22654],Ba1Fe1.898Co0.102As2,Ba1Fe1.898Co0.102As2,"{'As': 2.0, 'Ba': 1.0, 'Co': 0.10200000000000001, 'Fe': 1.8980000000000001}",18.6,18.6,0.0,1,Ba1 Fe1.898 Co0.102 As2
1479,[21822],Ba1Fe1.892Co0.108As2,Ba1Fe1.892Co0.108As2,"{'As': 2.0, 'Ba': 1.0, 'Co': 0.108, 'Fe': 1.892}",20.5,20.5,0.0,1,Ba1 Fe1.892 Co0.108 As2