,sc_id,supercon_formula,cleaned_formula,material_dict,highest_Tc,average_Tc,std_Tc,entry_count,composition
4612,[21510],Tl0.5Ba2Ca2Cu3.45Co0.05O10-z,Tl0.5Ba2Ca2Cu3.45Co0.05O10,"{'Ba': 2.0, 'Ca': 2.0, 'Co': 0.05, 'Cu': 3.45, 'O': 10.0, 'Tl': 0.5}",104.0,104.0,0.0,1,Tl0.5 Ba2 Ca2 Cu3.45 Co0.05 O10
4613,"[4118, 4119]",Hg0.8Cr0.2Ba2Ca2Cu3O8.1,Hg0.8Cr0.2Ba2Ca2Cu3O8.1,"{'Ba': 2.0, 'Ca': 2.0, 'Cr': 0.2, 'Cu': 3.0, 'Hg': 0.8, 'O': 8.1}",110.0,102.5,7.5,2,Hg0.8 Cr0.2 Ba2 Ca2 Cu3 O8.1
4614,[20291],Tl0.5Ba2Ca2Cu1Zn2.5O10-z,Tl0.5Ba2Ca2Cu1Zn2.5O10,"{'Ba': 2.0, 'Ca': 2.0, 'Cu': 1.0, 'O': 10.0, 'Tl': 0.5, 'Zn': 2.5}",120.0,120.0,0.0,1,Tl0.5 Ba2 Ca2 Cu1 Zn2.5 O10
4615,[20787],Tl0.25Li0.25Ba2Ca2Cu2Ni1.5O10-z,Tl0.25Li0.25Ba2Ca2Cu2Ni1.5O10,"{'Ba': 2.0, 'Ca': 2.0, 'Cu': 2.0, 'Li': 0.25, 'Ni': 1.5, 'O': 10.0, 'Tl': 0.25}",110.0,110.0,0.0,1,Tl0.25 Li0.25 Ba2 Ca2 Cu2 Ni1.5 O10
4616,[20791],Tl0.5Ba2Ca2Cu2Ni1.5O10-z,Tl0.5Ba2Ca2Cu2Ni1.5O10,"{'Ba': 2.0, 'Ca': 2.0, 'Cu': 2.0, 'Ni': 1.5, 'O': 10.0, 'Tl': 0.5}",97.0,97.0,0.0,1,Tl0.5 Ba2 Ca2 Cu2 Ni1.5 O10
4617,[21905],Tl0.25Li0.25Ba2Ca2Cu2.25Si1.25O7.719,Tl0.25Li0.25Ba2Ca2Cu2.25Si1.25O7.719,"{'Ba': 2.0, 'Ca': 2.0, 'Cu': 2.25, 'Li': 0.25, 'O': 7.719, 'Si': 1.25, 'Tl': 0.25}",99.0,99.0,0.0,1,Tl0.25 Li0.25 Ba2 Ca2 Cu2.25 Si1.25 O7.719
4618,[20773],Tl0.5Ba2Ca2Cu2.5Ge1O10-z,Tl0.5Ba2Ca2Cu2.5Ge1O10,"{'Ba': 2.0, 'Ca': 2.0, 'Cu': 2.5, 'Ge': 1.0, 'O': 10.0, 'Tl': 0.5}",104.0,104.0,0.0,1,Tl0.5 Ba2 Ca2 Cu2.5 Ge1 O10
4619,[21904],Tl0.25Li0.25Ba2Ca2Cu2.5Si1O7.853,Tl0.25Li0.25Ba2Ca2Cu2.5Si1O7.853,"{'Ba': 2.0, 'Ca': 2.0, 'Cu': 2.5, 'Li': 0.25, 'O': 7.853, 'Si': 1.0, 'Tl': 0.25}",113.0,113.0,0.0,1,Tl0.25 Li0.25 Ba2 Ca2 Cu2.5 Si1 O7.853
4620,[20772],Tl0.5Ba2Ca2Cu2.75Ge0.75O10-z,Tl0.5Ba2Ca2Cu2.75Ge0.75O10,"{'Ba': 2.0, 'Ca': 2.0, 'Cu': 2.75, 'Ge': 0.75, 'O': 10.0, 'Tl': 0.5}",108.0,108.0,0.0,1,Tl0.5 Ba2 Ca2 Cu2.75 Ge0.75 O10
4621,[10120],Ba2Ca2Cu3F0.8O7.2+z,Ba2Ca2Cu3F0.8O7.2,"{'Ba': 2.0, 'Ca': 2.0, 'Cu': 3.0, 'F': 0.8, 'O': 7.2}",120.0,120.0,0.0,1,Ba2 Ca2 Cu3 F0.8 O7.2
4622,[5865],Hg1Ba2Ca2Cu3FO8+z,Hg1Ba2Ca2Cu3FO8,"{'Ba': 2.0, 'Ca': 2.0, 'Cu': 3.0, 'F': 1.0, 'Hg': 1.0, 'O': 8.0}",135.0,135.0,0.0,1,Hg1 Ba2 Ca2 Cu3 F1 O8
4623,[10121],Ba2Ca2Cu3F1O7.0+z,Ba2Ca2Cu3F1O7.0,"{'Ba': 2.0, 'Ca': 2.0, 'Cu': 3.0, 'F': 1.0, 'O': 7.0}",116.0,116.0,0.0,1,Ba2 Ca2 Cu3 F1 O7
4624,"[10122, 22348]",Ba2Ca2Cu3F1.2O6.8+z,Ba2Ca2Cu3F1.2O6.8,"{'Ba': 2.0, 'Ca': 2.0, 'Cu': 3.0, 'F': 1.2, 'O': 6.8}",120.0,116.5,3.5,2,Ba2 Ca2 Cu3 F1.2 O6.8
4625,[10123],Ba2Ca2Cu3F1.3O6.7+z,Ba2Ca2Cu3F1.3O6.7,"{'Ba': 2.0, 'Ca': 2.0, 'Cu': 3.0, 'F': 1.3, 'O': 6.7}",109.0,109.0,0.0,1,Ba2 Ca2 Cu3 F1.3 O6.7
4626,[10124],Ba2Ca2Cu3F1.4O6.6+z,Ba2Ca2Cu3F1.4O6.6,"{'Ba': 2.0, 'Ca': 2.0, 'Cu': 3.0, 'F': 1.4, 'O': 6.6}",106.0,106.0,0.0,1,Ba2 Ca2 Cu3 F1.4 O6.6
4627,[10125],Ba2Ca2Cu3F1.6O6.2+z,Ba2Ca2Cu3F1.6O6.2,"{'Ba': 2.0, 'Ca': 2.0, 'Cu': 3.0, 'F': 1.6, 'O': 6.2}",95.5,95.5,0.0,1,Ba2 Ca2 Cu3 F1.6 O6.2
4628,[22349],Ba2Ca2Cu3F1.6O6.4,Ba2Ca2Cu3F1.6O6.4,"{'Ba': 2.0, 'Ca': 2.0, 'Cu': 3.0, 'F': 1.6, 'O': 6.4}",102.0,102.0,0.0,1,Ba2 Ca2 Cu3 F1.6 O6.4
4629,[22350],Ba2Ca2Cu3F1.8O6.2,Ba2Ca2Cu3F1.8O6.2,"{'Ba': 2.0, 'Ca': 2.0, 'Cu': 3.0, 'F': 1.8, 'O': 6.2}",81.0,81.0,0.0,1,Ba2 Ca2 Cu3 F1.8 O6.2
4630,"[11143, 20034]",Ba2Ca2Cu3F2O6,Ba2Ca2Cu3F2O6,"{'Ba': 2.0, 'Ca': 2.0, 'Cu': 3.0, 'F': 2.0, 'O': 6.0}",90.0,83.0,7.0,2,Ba2 Ca2 Cu3 F2 O6
4631,[20771],Tl0.5Ba2Ca2Cu3Ge0.5O10-z,Tl0.5Ba2Ca2Cu3Ge0.5O10,"{'Ba': 2.0, 'Ca': 2.0, 'Cu': 3.0, 'Ge': 0.5, 'O': 10.0, 'Tl': 0.5}",103.0,103.0,0.0,1,Tl0.5 Ba2 Ca2 Cu3 Ge0.5 O10
4632,[4497],Tl0.9Hg0.1Ba2Ca2Cu3O8+z,Tl0.9Hg0.1Ba2Ca2Cu3O8,"{'Ba': 2.0, 'Ca': 2.0, 'Cu': 3.0, 'Hg': 0.1, 'O': 8.0, 'Tl': 0.9}",132.0,132.0,0.0,1,Tl0.9 Hg0.1 Ba2 Ca2 Cu3 O8
4633,[22390],Tl0.8Hg0.2Ba2Ca2Cu3O9-z,Tl0.8Hg0.2Ba2Ca2Cu3O9,"{'Ba': 2.0, 'Ca': 2.0, 'Cu': 3.0, 'Hg': 0.2, 'O': 9.0, 'Tl': 0.8}",137.4,137.4,0.0,1,Tl0.8 Hg0.2 Ba2 Ca2 Cu3 O9
4634,[4498],Tl0.7Hg0.3Ba2Ca2Cu3O8+z,Tl0.7Hg0.3Ba2Ca2Cu3O8,"{'Ba': 2.0, 'Ca': 2.0, 'Cu': 3.0, 'Hg': 0.30000000000000004, 'O': 8.0, 'Tl': 0.7000000000000001}",133.0,133.0,0.0,1,Tl0.7 Hg0.3 Ba2 Ca2 Cu3 O8
4635,[4038],Tl1.7Hg0.3Ba2Ca2Cu3O10-z,Tl1.7Hg0.3Ba2Ca2Cu3O10,"{'Ba': 2.0, 'Ca': 2.0, 'Cu': 3.0, 'Hg': 0.30000000000000004, 'O': 10.0, 'Tl': 1.7000000000000002}",124.0,124.0,0.0,1,Tl1.7 Hg0.3 Ba2 Ca2 Cu3 O10
4636,[4039],Tl1.6Hg0.4Ba2Ca2Cu3O10-z,Tl1.6Hg0.4Ba2Ca2Cu3O10,"{'Ba': 2.0, 'Ca': 2.0, 'Cu': 3.0, 'Hg': 0.4, 'O': 10.0, 'Tl': 1.6}",127.0,127.0,0.0,1,Tl1.6 Hg0.4 Ba2 Ca2 Cu3 O10
4637,[4897],Hg0.5Pb0.5Ba2Ca2Cu3O8+z,Hg0.5Pb0.5Ba2Ca2Cu3O8,"{'Ba': 2.0, 'Ca': 2.0, 'Cu': 3.0, 'Hg': 0.5, 'O': 8.0, 'Pb': 0.5}",103.0,103.0,0.0,1,Hg0.5 Pb0.5 Ba2 Ca2 Cu3 O8
4638,[4499],Tl0.5Hg0.5Ba2Ca2Cu3O8+z,Tl0.5Hg0.5Ba2Ca2Cu3O8,"{'Ba': 2.0, 'Ca': 2.0, 'Cu': 3.0, 'Hg': 0.5, 'O': 8.0, 'Tl': 0.5}",134.0,134.0,0.0,1,Tl0.5 Hg0.5 Ba2 Ca2 Cu3 O8
4639,[4449],Hg0.5Pb0.5Ba2Ca2Cu3O8.45,Hg0.5Pb0.5Ba2Ca2Cu3O8.45,"{'Ba': 2.0, 'Ca': 2.0, 'Cu': 3.0, 'Hg': 0.5, 'O': 8.45, 'Pb': 0.5}",103.0,103.0,0.0,1,Hg0.5 Pb0.5 Ba2 Ca2 Cu3 O8.45
4640,[4896],Hg0.6Pb0.4Ba2Ca2Cu3O8+z,Hg0.6Pb0.4Ba2Ca2Cu3O8,"{'Ba': 2.0, 'Ca': 2.0, 'Cu': 3.0, 'Hg': 0.6000000000000001, 'O': 8.0, 'Pb': 0.4}",120.0,120.0,0.0,1,Hg0.6 Pb0.4 Ba2 Ca2 Cu3 O8
4641,[4448],Hg0.6Pb0.4Ba2Ca2Cu3O8.4,Hg0.6Pb0.4Ba2Ca2Cu3O8.4,"{'Ba': 2.0, 'Ca': 2.0, 'Cu': 3.0, 'Hg': 0.6000000000000001, 'O': 8.4, 'Pb': 0.4}",120.0,120.0,0.0,1,Hg0.6 Pb0.4 Ba2 Ca2 Cu3 O8.4
4642,"[4116, 4117]",Hg0.6Ti0.4Ba2Ca2Cu3O8.4,Hg0.6Ti0.4Ba2Ca2Cu3O8.4,"{'Ba': 2.0, 'Ca': 2.0, 'Cu': 3.0, 'Hg': 0.6000000000000001, 'O': 8.4, 'Ti': 0.4}",134.0,131.0,3.0,2,Hg0.6 Ti0.4 Ba2 Ca2 Cu3 O8.4
4643,[4040],Tl1.4Hg0.6Ba2Ca2Cu3O10-z,Tl1.4Hg0.6Ba2Ca2Cu3O10,"{'Ba': 2.0, 'Ca': 2.0, 'Cu': 3.0, 'Hg': 0.6000000000000001, 'O': 10.0, 'Tl': 1.4}",123.5,123.5,0.0,1,Tl1.4 Hg0.6 Ba2 Ca2 Cu3 O10
4644,"[4895, 5741]",Hg0.7Pb0.3Ba2Ca2Cu3O8+z,Hg0.7Pb0.3Ba2Ca2Cu3O8,"{'Ba': 2.0, 'Ca': 2.0, 'Cu': 3.0, 'Hg': 0.7000000000000001, 'O': 8.0, 'Pb': 0.30000000000000004}",143.0,136.5,6.5,2,Hg0.7 Pb0.3 Ba2 Ca2 Cu3 O8
4645,[4500],Tl0.3Hg0.7Ba2Ca2Cu3O8+z,Tl0.3Hg0.7Ba2Ca2Cu3O8,"{'Ba': 2.0, 'Ca': 2.0, 'Cu': 3.0, 'Hg': 0.7000000000000001, 'O': 8.0, 'Tl': 0.30000000000000004}",134.0,134.0,0.0,1,Tl0.3 Hg0.7 Ba2 Ca2 Cu3 O8
4646,[4447],Hg0.7Pb0.3Ba2Ca2Cu3O8.35,Hg0.7Pb0.3Ba2Ca2Cu3O8.35,"{'Ba': 2.0, 'Ca': 2.0, 'Cu': 3.0, 'Hg': 0.7000000000000001, 'O': 8.35, 'Pb': 0.30000000000000004}",130.0,130.0,0.0,1,Hg0.7 Pb0.3 Ba2 Ca2 Cu3 O8.35
4647,[9674],Hg0.75Re0.25Ba2Ca2Cu3O8+D,Hg0.75Re0.25Ba2Ca2Cu3O8,"{'Ba': 2.0, 'Ca': 2.0, 'Cu': 3.0, 'Hg': 0.75, 'O': 8.0, 'Re': 0.25}",132.72,132.72,0.0,1,Hg0.75 Re0.25 Ba2 Ca2 Cu3 O8
4648,[4133],Hg0.75SrBa2Ca2Cu3O8+z,Hg0.75SrBa2Ca2Cu3O8,"{'Ba': 2.0, 'Ca': 2.0, 'Cu': 3.0, 'Hg': 0.75, 'O': 8.0, 'Sr': 1.0}",133.5,133.5,0.0,1,Hg0.75 Sr1 Ba2 Ca2 Cu3 O8
4649,[6386],Hg0.77Re0.23Ba2Ca2Cu3O8+Z,Hg0.77Re0.23Ba2Ca2Cu3O8,"{'Ba': 2.0, 'Ca': 2.0, 'Cu': 3.0, 'Hg': 0.77, 'O': 8.0, 'Re': 0.23}",130.0,130.0,0.0,1,Hg0.77 Re0.23 Ba2 Ca2 Cu3 O8
4650,"[4114, 4115]",Hg0.8Mo0.2Ba2Ca2Cu3O8.4,Hg0.8Mo0.2Ba2Ca2Cu3O8.4,"{'Ba': 2.0, 'Ca': 2.0, 'Cu': 3.0, 'Hg': 0.8, 'Mo': 0.2, 'O': 8.4}",134.0,131.5,2.5,2,Hg0.8 Mo0.2 Ba2 Ca2 Cu3 O8.4
4651,[9278],Hg0.8Nd0.2Ba2Ca2Cu3O8.3,Hg0.8Nd0.2Ba2Ca2Cu3O8.3,"{'Ba': 2.0, 'Ca': 2.0, 'Cu': 3.0, 'Hg': 0.8, 'Nd': 0.2, 'O': 8.3}",128.0,128.0,0.0,1,Hg0.8 Nd0.2 Ba2 Ca2 Cu3 O8.3
4652,[12096],Hg0.8Sb0.15Pb0.05Ba2Ca2Cu3O8+z,Hg0.8Sb0.15Pb0.05Ba2Ca2Cu3O8,"{'Ba': 2.0, 'Ca': 2.0, 'Cu': 3.0, 'Hg': 0.8, 'O': 8.0, 'Pb': 0.05, 'Sb': 0.15}",127.0,127.0,0.0,1,Hg0.8 Sb0.15 Pb0.05 Ba2 Ca2 Cu3 O8
4653,[12097],Hg0.8Sb0.1Pb0.1Ba2Ca2Cu3O8+z,Hg0.8Sb0.1Pb0.1Ba2Ca2Cu3O8,"{'Ba': 2.0, 'Ca': 2.0, 'Cu': 3.0, 'Hg': 0.8, 'O': 8.0, 'Pb': 0.1, 'Sb': 0.1}",129.0,129.0,0.0,1,Hg0.8 Sb0.1 Pb0.1 Ba2 Ca2 Cu3 O8
4654,[12098],Hg0.8Sb0.05Pb0.15Ba2Ca2Cu3O8+z,Hg0.8Sb0.05Pb0.15Ba2Ca2Cu3O8,"{'Ba': 2.0, 'Ca': 2.0, 'Cu': 3.0, 'Hg': 0.8, 'O': 8.0, 'Pb': 0.15, 'Sb': 0.05}",133.0,133.0,0.0,1,Hg0.8 Sb0.05 Pb0.15 Ba2 Ca2 Cu3 O8
4655,"[4894, 6798, 7770, 12099]",Hg0.8Pb0.2Ba2Ca2Cu3O8+z,Hg0.8Pb0.2Ba2Ca2Cu3O8,"{'Ba': 2.0, 'Ca': 2.0, 'Cu': 3.0, 'Hg': 0.8, 'O': 8.0, 'Pb': 0.2}",132.0,129.75,2.8613807855999998,4,Hg0.8 Pb0.2 Ba2 Ca2 Cu3 O8
4656,[9673],Hg0.8Re0.2Ba2Ca2Cu3O8+D,Hg0.8Re0.2Ba2Ca2Cu3O8,"{'Ba': 2.0, 'Ca': 2.0, 'Cu': 3.0, 'Hg': 0.8, 'O': 8.0, 'Re': 0.2}",133.12,133.12,0.0,1,Hg0.8 Re0.2 Ba2 Ca2 Cu3 O8
4657,[12095],Hg0.8Sb0.2Ba2Ca2Cu3O8+z,Hg0.8Sb0.2Ba2Ca2Cu3O8,"{'Ba': 2.0, 'Ca': 2.0, 'Cu': 3.0, 'Hg': 0.8, 'O': 8.0, 'Sb': 0.2}",126.0,126.0,0.0,1,Hg0.8 Sb0.2 Ba2 Ca2 Cu3 O8
4658,[4446],Hg0.8Pb0.2Ba2Ca2Cu3O8.3,Hg0.8Pb0.2Ba2Ca2Cu3O8.3,"{'Ba': 2.0, 'Ca': 2.0, 'Cu': 3.0, 'Hg': 0.8, 'O': 8.3, 'Pb': 0.2}",125.0,125.0,0.0,1,Hg0.8 Pb0.2 Ba2 Ca2 Cu3 O8.3
4659,"[4112, 4113]",Hg0.8V0.2Ba2Ca2Cu3O8.3,Hg0.8V0.2Ba2Ca2Cu3O8.3,"{'Ba': 2.0, 'Ca': 2.0, 'Cu': 3.0, 'Hg': 0.8, 'O': 8.3, 'V': 0.2}",127.0,123.5,3.5,2,Hg0.8 V0.2 Ba2 Ca2 Cu3 O8.3
4660,"[9672, 10452, 10453, 11506, 11507, 11508]",Hg0.82Re0.18Ba2Ca2Cu3O8+D,Hg0.82Re0.18Ba2Ca2Cu3O8,"{'Ba': 2.0, 'Ca': 2.0, 'Cu': 3.0, 'Hg': 0.8200000000000001, 'O': 8.0, 'Re': 0.18}",133.2,132.52,0.6016643583,6,Hg0.82 Re0.18 Ba2 Ca2 Cu3 O8
4661,"[9671, 10532]",Hg0.85Re0.15Ba2Ca2Cu3O8+D,Hg0.85Re0.15Ba2Ca2Cu3O8,"{'Ba': 2.0, 'Ca': 2.0, 'Cu': 3.0, 'Hg': 0.85, 'O': 8.0, 'Re': 0.15}",132.92,132.91,0.01,2,Hg0.85 Re0.15 Ba2 Ca2 Cu3 O8
4662,"[4893, 6797, 7769]",Hg0.9Pb0.1Ba2Ca2Cu3O8+z,Hg0.9Pb0.1Ba2Ca2Cu3O8,"{'Ba': 2.0, 'Ca': 2.0, 'Cu': 3.0, 'Hg': 0.9, 'O': 8.0, 'Pb': 0.1}",130.0,126.0,5.6568542495,3,Hg0.9 Pb0.1 Ba2 Ca2 Cu3 O8
4663,[9670],Hg0.9Re0.1Ba2Ca2Cu3O8+D,Hg0.9Re0.1Ba2Ca2Cu3O8,"{'Ba': 2.0, 'Ca': 2.0, 'Cu': 3.0, 'Hg': 0.9, 'O': 8.0, 'Re': 0.1}",132.62,132.62,0.0,1,Hg0.9 Re0.1 Ba2 Ca2 Cu3 O8
4664,[4501],Tl0.1Hg0.9Ba2Ca2Cu3O8+z,Tl0.1Hg0.9Ba2Ca2Cu3O8,"{'Ba': 2.0, 'Ca': 2.0, 'Cu': 3.0, 'Hg': 0.9, 'O': 8.0, 'Tl': 0.1}",134.0,134.0,0.0,1,Tl0.1 Hg0.9 Ba2 Ca2 Cu3 O8
4665,[4445],Hg0.9Pb0.1Ba2Ca2Cu3O8.25,Hg0.9Pb0.1Ba2Ca2Cu3O8.25,"{'Ba': 2.0, 'Ca': 2.0, 'Cu': 3.0, 'Hg': 0.9, 'O': 8.25, 'Pb': 0.1}",118.0,118.0,0.0,1,Hg0.9 Pb0.1 Ba2 Ca2 Cu3 O8.25
4666,[9669],Hg0.95Re0.05Ba2Ca2Cu3O8+D,Hg0.95Re0.05Ba2Ca2Cu3O8,"{'Ba': 2.0, 'Ca': 2.0, 'Cu': 3.0, 'Hg': 0.9500000000000001, 'O': 8.0, 'Re': 0.05}",132.52,132.52,0.0,1,Hg0.95 Re0.05 Ba2 Ca2 Cu3 O8
4667,[6784],Hg0.95Sb0.05Ba2Ca2Cu3O8+Z,Hg0.95Sb0.05Ba2Ca2Cu3O8,"{'Ba': 2.0, 'Ca': 2.0, 'Cu': 3.0, 'Hg': 0.9500000000000001, 'O': 8.0, 'Sb': 0.05}",132.0,132.0,0.0,1,Hg0.95 Sb0.05 Ba2 Ca2 Cu3 O8
4668,[4502],Tl0.05Hg0.95Ba2Ca2Cu3O8+z,Tl0.05Hg0.95Ba2Ca2Cu3O8,"{'Ba': 2.0, 'Ca': 2.0, 'Cu': 3.0, 'Hg': 0.9500000000000001, 'O': 8.0, 'Tl': 0.05}",134.0,134.0,0.0,1,Tl0.05 Hg0.95 Ba2 Ca2 Cu3 O8
4669,[6042],Hg0.97Re0.03Ba2Ca2Cu3O8+z,Hg0.97Re0.03Ba2Ca2Cu3O8,"{'Ba': 2.0, 'Ca': 2.0, 'Cu': 3.0, 'Hg': 0.97, 'O': 8.0, 'Re': 0.03}",130.0,130.0,0.0,1,Hg0.97 Re0.03 Ba2 Ca2 Cu3 O8
4670,"[3151, 3363, 3364, 3379, 3408, 3442, 3792, 3908, 4032, 4033, 4503, 4578, 4708, 4892, 5211, 5212, 5419, 5740, 5861, 6230, 6231, 6232, 6384, 6385, 6793, 6796, 7679, 7768, 7939, 8108, 8280, 8725, 8798, 9611, 10182, 10411, 23021]",Hg1Ba2Ca2Cu3O8+Z,Hg1Ba2Ca2Cu3O8,"{'Ba': 2.0, 'Ca': 2.0, 'Cu': 3.0, 'Hg': 1.0, 'O': 8.0}",135.7,128.3621621622,8.5884382166,37,Hg1 Ba2 Ca2 Cu3 O8
4671,[8712],Hg1Ba2Ca2Cu3O8.16,Hg1Ba2Ca2Cu3O8.16,"{'Ba': 2.0, 'Ca': 2.0, 'Cu': 3.0, 'Hg': 1.0, 'O': 8.16}",101.0,101.0,0.0,1,Hg1 Ba2 Ca2 Cu3 O8.16
4672,"[8710, 8711]",Hg1Ba2Ca2Cu3O8.17,Hg1Ba2Ca2Cu3O8.17,"{'Ba': 2.0, 'Ca': 2.0, 'Cu': 3.0, 'Hg': 1.0, 'O': 8.17}",98.0,96.0,2.0,2,Hg1 Ba2 Ca2 Cu3 O8.17
4673,[7964],Hg1Ba2Ca2Cu3O8.18,Hg1Ba2Ca2Cu3O8.18,"{'Ba': 2.0, 'Ca': 2.0, 'Cu': 3.0, 'Hg': 1.0, 'O': 8.18}",94.0,94.0,0.0,1,Hg1 Ba2 Ca2 Cu3 O8.18
4674,"[8713, 8714]",Hg1Ba2Ca2Cu3O8.2,Hg1Ba2Ca2Cu3O8.2,"{'Ba': 2.0, 'Ca': 2.0, 'Cu': 3.0, 'Hg': 1.0, 'O': 8.2}",105.0,104.5,0.5,2,Hg1 Ba2 Ca2 Cu3 O8.2
4675,"[4444, 7963]",Hg1Ba2Ca2Cu3O8.22,Hg1Ba2Ca2Cu3O8.22,"{'Ba': 2.0, 'Ca': 2.0, 'Cu': 3.0, 'Hg': 1.0, 'O': 8.22}",110.0,108.5,1.5,2,Hg1 Ba2 Ca2 Cu3 O8.22
4676,[8715],Hg1Ba2Ca2Cu3O8.25,Hg1Ba2Ca2Cu3O8.25,"{'Ba': 2.0, 'Ca': 2.0, 'Cu': 3.0, 'Hg': 1.0, 'O': 8.25}",132.0,132.0,0.0,1,Hg1 Ba2 Ca2 Cu3 O8.25
4677,[7962],Hg1Ba2Ca2Cu3O8.27,Hg1Ba2Ca2Cu3O8.27,"{'Ba': 2.0, 'Ca': 2.0, 'Cu': 3.0, 'Hg': 1.0, 'O': 8.27}",135.0,135.0,0.0,1,Hg1 Ba2 Ca2 Cu3 O8.27
4678,[9398],Hg1Ba2Ca2Cu3O8.28,Hg1Ba2Ca2Cu3O8.28,"{'Ba': 2.0, 'Ca': 2.0, 'Cu': 3.0, 'Hg': 1.0, 'O': 8.28}",118.5,118.5,0.0,1,Hg1 Ba2 Ca2 Cu3 O8.28
4679,"[8716, 8717]",Hg1Ba2Ca2Cu3O8.29,Hg1Ba2Ca2Cu3O8.29,"{'Ba': 2.0, 'Ca': 2.0, 'Cu': 3.0, 'Hg': 1.0, 'O': 8.29}",135.0,135.0,0.0,2,Hg1 Ba2 Ca2 Cu3 O8.29
4680,"[8718, 8719]",Hg1Ba2Ca2Cu3O8.3,Hg1Ba2Ca2Cu3O8.3,"{'Ba': 2.0, 'Ca': 2.0, 'Cu': 3.0, 'Hg': 1.0, 'O': 8.3}",134.0,133.5,0.5,2,Hg1 Ba2 Ca2 Cu3 O8.3
4681,[9399],Hg1Ba2Ca2Cu3O8.35,Hg1Ba2Ca2Cu3O8.35,"{'Ba': 2.0, 'Ca': 2.0, 'Cu': 3.0, 'Hg': 1.0, 'O': 8.35}",134.0,134.0,0.0,1,Hg1 Ba2 Ca2 Cu3 O8.35
4682,[3849],Hg1Ba2Ca2Cu3O8.41,Hg1Ba2Ca2Cu3O8.41,"{'Ba': 2.0, 'Ca': 2.0, 'Cu': 3.0, 'Hg': 1.0, 'O': 8.41}",133.0,133.0,0.0,1,Hg1 Ba2 Ca2 Cu3 O8.41
4683,[8338],Hg1Tl1Ba2Ca2Cu3O10,Hg1Tl1Ba2Ca2Cu3O10,"{'Ba': 2.0, 'Ca': 2.0, 'Cu': 3.0, 'Hg': 1.0, 'O': 10.0, 'Tl': 1.0}",76.0,76.0,0.0,1,Hg1 Tl1 Ba2 Ca2 Cu3 O10
4684,[4037],Tl2HgBa2Ca2Cu3O10-Z,Tl2HgBa2Ca2Cu3O10,"{'Ba': 2.0, 'Ca': 2.0, 'Cu': 3.0, 'Hg': 1.0, 'O': 10.0, 'Tl': 2.0}",118.5,118.5,0.0,1,Tl2 Hg1 Ba2 Ca2 Cu3 O10
4685,[4883],La2Ca2Ba2Cu3O13.712,La2Ca2Ba2Cu3O13.712,"{'Ba': 2.0, 'Ca': 2.0, 'Cu': 3.0, 'La': 2.0, 'O': 13.712}",76.0,76.0,0.0,1,La2 Ca2 Ba2 Cu3 O13.712
4686,[21903],Tl0.25Li0.25Ba2Ca2Cu3Si0.5O7.835,Tl0.25Li0.25Ba2Ca2Cu3Si0.5O7.835,"{'Ba': 2.0, 'Ca': 2.0, 'Cu': 3.0, 'Li': 0.25, 'O': 7.835, 'Si': 0.5, 'Tl': 0.25}",111.0,111.0,0.0,1,Tl0.25 Li0.25 Ba2 Ca2 Cu3 Si0.5 O7.835
4687,[10150],Tl0.9Ni0.1Ba2Ca2Cu3O9-z,Tl0.9Ni0.1Ba2Ca2Cu3O9,"{'Ba': 2.0, 'Ca': 2.0, 'Cu': 3.0, 'Ni': 0.1, 'O': 9.0, 'Tl': 0.9}",116.3,116.3,0.0,1,Tl0.9 Ni0.1 Ba2 Ca2 Cu3 O9
4688,[10151],Tl0.8Ni0.2Ba2Ca2Cu3O9-z,Tl0.8Ni0.2Ba2Ca2Cu3O9,"{'Ba': 2.0, 'Ca': 2.0, 'Cu': 3.0, 'Ni': 0.2, 'O': 9.0, 'Tl': 0.8}",113.4,113.4,0.0,1,Tl0.8 Ni0.2 Ba2 Ca2 Cu3 O9
4689,[10152],Tl0.7Ni0.3Ba2Ca2Cu3O9-z,Tl0.7Ni0.3Ba2Ca2Cu3O9,"{'Ba': 2.0, 'Ca': 2.0, 'Cu': 3.0, 'Ni': 0.30000000000000004, 'O': 9.0, 'Tl': 0.7000000000000001}",111.5,111.5,0.0,1,Tl0.7 Ni0.3 Ba2 Ca2 Cu3 O9
4690,[10153],Tl0.6Ni0.4Ba2Ca2Cu3O9-z,Tl0.6Ni0.4Ba2Ca2Cu3O9,"{'Ba': 2.0, 'Ca': 2.0, 'Cu': 3.0, 'Ni': 0.4, 'O': 9.0, 'Tl': 0.6000000000000001}",109.0,109.0,0.0,1,Tl0.6 Ni0.4 Ba2 Ca2 Cu3 O9
4691,[10154],Tl0.5Ni0.5Ba2Ca2Cu3O9-z,Tl0.5Ni0.5Ba2Ca2Cu3O9,"{'Ba': 2.0, 'Ca': 2.0, 'Cu': 3.0, 'Ni': 0.5, 'O': 9.0, 'Tl': 0.5}",105.0,105.0,0.0,1,Tl0.5 Ni0.5 Ba2 Ca2 Cu3 O9
4692,[3375],Ba2Ca2Cu3O8+z,Ba2Ca2Cu3O8,"{'Ba': 2.0, 'Ca': 2.0, 'Cu': 3.0, 'O': 8.0}",75.0,75.0,0.0,1,Ba2 Ca2 Cu3 O8
4693,[4496],Tl1Ba2Ca2Cu3O8+z,Tl1Ba2Ca2Cu3O8,"{'Ba': 2.0, 'Ca': 2.0, 'Cu': 3.0, 'O': 8.0, 'Tl': 1.0}",123.0,123.0,0.0,1,Tl1 Ba2 Ca2 Cu3 O8
4694,[6497],Ca2Ba2Cu3O9-Z,Ca2Ba2Cu3O9,"{'Ba': 2.0, 'Ca': 2.0, 'Cu': 3.0, 'O': 9.0}",107.0,107.0,0.0,1,Ca2 Ba2 Cu3 O9
4695,[4577],Tl1Ba2Sr1Ca2Cu3O9,Tl1Ba2Sr1Ca2Cu3O9,"{'Ba': 2.0, 'Ca': 2.0, 'Cu': 3.0, 'O': 9.0, 'Sr': 1.0, 'Tl': 1.0}",92.0,92.0,0.0,1,Tl1 Ba2 Sr1 Ca2 Cu3 O9
4696,[10160],Tl0.4Zn0.6Ba2Ca2Cu3O9-z,Tl0.4Zn0.6Ba2Ca2Cu3O9,"{'Ba': 2.0, 'Ca': 2.0, 'Cu': 3.0, 'O': 9.0, 'Tl': 0.4, 'Zn': 0.6000000000000001}",113.0,113.0,0.0,1,Tl0.4 Zn0.6 Ba2 Ca2 Cu3 O9
4697,[10159],Tl0.6Zn0.4Ba2Ca2Cu3O9-z,Tl0.6Zn0.4Ba2Ca2Cu3O9,"{'Ba': 2.0, 'Ca': 2.0, 'Cu': 3.0, 'O': 9.0, 'Tl': 0.6000000000000001, 'Zn': 0.4}",117.0,117.0,0.0,1,Tl0.6 Zn0.4 Ba2 Ca2 Cu3 O9
4698,[10158],Tl0.7Zn0.3Ba2Ca2Cu3O9-z,Tl0.7Zn0.3Ba2Ca2Cu3O9,"{'Ba': 2.0, 'Ca': 2.0, 'Cu': 3.0, 'O': 9.0, 'Tl': 0.7000000000000001, 'Zn': 0.30000000000000004}",119.0,119.0,0.0,1,Tl0.7 Zn0.3 Ba2 Ca2 Cu3 O9
4699,[10157],Tl0.8Zn0.2Ba2Ca2Cu3O9-z,Tl0.8Zn0.2Ba2Ca2Cu3O9,"{'Ba': 2.0, 'Ca': 2.0, 'Cu': 3.0, 'O': 9.0, 'Tl': 0.8, 'Zn': 0.2}",124.0,124.0,0.0,1,Tl0.8 Zn0.2 Ba2 Ca2 Cu3 O9
4700,[10156],Tl0.9Zn0.1Ba2Ca2Cu3O9-z,Tl0.9Zn0.1Ba2Ca2Cu3O9,"{'Ba': 2.0, 'Ca': 2.0, 'Cu': 3.0, 'O': 9.0, 'Tl': 0.9, 'Zn': 0.1}",119.0,119.0,0.0,1,Tl0.9 Zn0.1 Ba2 Ca2 Cu3 O9
4701,"[4358, 4569, 4570, 4571, 5870, 6733, 10155, 20029, 20303]",Tl1Ba2Ca2Cu3O9,Tl1Ba2Ca2Cu3O9,"{'Ba': 2.0, 'Ca': 2.0, 'Cu': 3.0, 'O': 9.0, 'Tl': 1.0}",131.0,115.22,7.928043054,9,Tl1 Ba2 Ca2 Cu3 O9
4702,[2463],Tl2Ba2Ca2Cu3O9.83,Tl2Ba2Ca2Cu3O9.83,"{'Ba': 2.0, 'Ca': 2.0, 'Cu': 3.0, 'O': 9.83, 'Tl': 2.0}",114.0,114.0,0.0,1,Tl2 Ba2 Ca2 Cu3 O9.83
4703,"[1082, 1113]",Tl2Ba2Ca2Cu3O9.841,Tl2Ba2Ca2Cu3O9.841,"{'Ba': 2.0, 'Ca': 2.0, 'Cu': 3.0, 'O': 9.841, 'Tl': 2.0}",110.0,110.0,0.0,2,Tl2 Ba2 Ca2 Cu3 O9.841
4704,"[1081, 1112]",Tl2Ba2Ca2Cu3O9.877,Tl2Ba2Ca2Cu3O9.877,"{'Ba': 2.0, 'Ca': 2.0, 'Cu': 3.0, 'O': 9.877, 'Tl': 2.0}",111.0,111.0,0.0,2,Tl2 Ba2 Ca2 Cu3 O9.877
4705,"[1080, 1111]",Tl2Ba2Ca2Cu3O9.964,Tl2Ba2Ca2Cu3O9.964,"{'Ba': 2.0, 'Ca': 2.0, 'Cu': 3.0, 'O': 9.964, 'Tl': 2.0}",112.0,112.0,0.0,2,Tl2 Ba2 Ca2 Cu3 O9.964
4706,[20770],Tl0.5Ba2Ca2Cu3O10-z,Tl0.5Ba2Ca2Cu3O10,"{'Ba': 2.0, 'Ca': 2.0, 'Cu': 3.0, 'O': 10.0, 'Tl': 0.5}",112.0,112.0,0.0,1,Tl0.5 Ba2 Ca2 Cu3 O10
4707,"[1063, 1064, 1079, 1085, 1110, 1620, 1672, 1734, 1772, 2306, 2307, 2337, 2338, 2746, 3077, 3225, 3460, 3476, 3805, 4572, 4573, 6792, 9106, 9107]",Tl2Ba2Ca2Cu3O10+Z,Tl2Ba2Ca2Cu3O10,"{'Ba': 2.0, 'Ca': 2.0, 'Cu': 3.0, 'O': 10.0, 'Tl': 2.0}",129.0,117.3729166667,6.2478826274,24,Tl2 Ba2 Ca2 Cu3 O10
4708,"[6099, 6100, 6101]",Cu0.25Tl0.75Ba2Ca2Cu3O11-Z,Cu0.25Tl0.75Ba2Ca2Cu3O11,"{'Ba': 2.0, 'Ca': 2.0, 'Cu': 3.25, 'O': 11.0, 'Tl': 0.75}",121.0,115.3333333333,5.4365021434,3,Cu3.25 Tl0.75 Ba2 Ca2 O11
4709,[21902],Tl0.25Li0.25Ba2Ca2Cu3.5O7.955,Tl0.25Li0.25Ba2Ca2Cu3.5O7.955,"{'Ba': 2.0, 'Ca': 2.0, 'Cu': 3.5, 'Li': 0.25, 'O': 7.955, 'Tl': 0.25}",117.0,117.0,0.0,1,Tl0.25 Li0.25 Ba2 Ca2 Cu3.5 O7.955
4710,"[6996, 11402, 20464, 21881]",Tl0.5Ba2Ca2Cu3.5O10-z,Tl0.5Ba2Ca2Cu3.5O10,"{'Ba': 2.0, 'Ca': 2.0, 'Cu': 3.5, 'O': 10.0, 'Tl': 0.5}",132.0,109.875,13.5479472615,4,Tl0.5 Ba2 Ca2 Cu3.5 O10
4711,"[6374, 6375, 6376, 6377, 6378, 6379, 6380]",Cu4Ba2Ca2O8+Z,Cu4Ba2Ca2O8,"{'Ba': 2.0, 'Ca': 2.0, 'Cu': 4.0, 'O': 8.0}",118.0,96.1428571429,19.0520233003,7,Cu4 Ba2 Ca2 O8
4712,[20020],Ba2Ca2Cu4O10-z,Ba2Ca2Cu4O10,"{'Ba': 2.0, 'Ca': 2.0, 'Cu': 4.0, 'O': 10.0}",106.0,106.0,0.0,1,Ba2 Ca2 Cu4 O10
4713,"[20014, 20015]",Tl0.5Ba2Ca2Mg2Cu5.5O14-z,Tl0.5Ba2Ca2Mg2Cu5.5O14,"{'Ba': 2.0, 'Ca': 2.0, 'Cu': 5.5, 'Mg': 2.0, 'O': 14.0, 'Tl': 0.5}",132.6,116.3,16.3,2,Tl0.5 Ba2 Ca2 Mg2 Cu5.5 O14
4714,[7368],La1Er1Ba2Ca2Cu6O14.122,La1Er1Ba2Ca2Cu6O14.122,"{'Ba': 2.0, 'Ca': 2.0, 'Cu': 6.0, 'Er': 1.0, 'La': 1.0, 'O': 14.122}",79.0,79.0,0.0,1,La1 Er1 Ba2 Ca2 Cu6 O14.122
4715,[7374],La1Gd1Ba2Ca2Cu6O14.1,La1Gd1Ba2Ca2Cu6O14.1,"{'Ba': 2.0, 'Ca': 2.0, 'Cu': 6.0, 'Gd': 1.0, 'La': 1.0, 'O': 14.1}",79.0,79.0,0.0,1,La1 Gd1 Ba2 Ca2 Cu6 O14.1
4716,"[8940, 20027]",Ba2Ca2.01Mg0.99Cu5O12-z,Ba2Ca2.01Mg0.99Cu5O12,"{'Ba': 2.0, 'Ca': 2.01, 'Cu': 5.0, 'Mg': 0.99, 'O': 12.0}",116.6,116.6,0.0,2,Ba2 Ca2.01 Mg0.99 Cu5 O12
4717,[2464],Tl1.8Ba2Ca2.2Cu3O9.92,Tl1.8Ba2Ca2.2Cu3O9.92,"{'Ba': 2.0, 'Ca': 2.2, 'Cu': 3.0, 'O': 9.92, 'Tl': 1.8}",112.0,112.0,0.0,1,Tl1.8 Ba2 Ca2.2 Cu3 O9.92
4718,[2465],Tl1.7Ba2Ca2.3Cu3O9.82,Tl1.7Ba2Ca2.3Cu3O9.82,"{'Ba': 2.0, 'Ca': 2.3, 'Cu': 3.0, 'O': 9.82, 'Tl': 1.7000000000000002}",116.0,116.0,0.0,1,Tl1.7 Ba2 Ca2.3 Cu3 O9.82
4719,[8080],Tl1.62Ba2Ca2.3Cu3O9.92,Tl1.62Ba2Ca2.3Cu3O9.92,"{'Ba': 2.0, 'Ca': 2.3, 'Cu': 3.0, 'O': 9.92, 'Tl': 1.62}",113.0,113.0,0.0,1,Tl1.62 Ba2 Ca2.3 Cu3 O9.92
4720,[2466],Tl1.6Ba2Ca2.4Cu3O9.67,Tl1.6Ba2Ca2.4Cu3O9.67,"{'Ba': 2.0, 'Ca': 2.4, 'Cu': 3.0, 'O': 9.67, 'Tl': 1.6}",118.0,118.0,0.0,1,Tl1.6 Ba2 Ca2.4 Cu3 O9.67
4721,"[8939, 20026]",Ba2Ca2.4Mg0.6Cu5O12-z,Ba2Ca2.4Mg0.6Cu5O12,"{'Ba': 2.0, 'Ca': 2.4, 'Cu': 5.0, 'Mg': 0.6000000000000001, 'O': 12.0}",116.8,116.8,0.0,2,Ba2 Ca2.4 Mg0.6 Cu5 O12
4722,[2467],Tl1.4Ba2Ca2.6Cu3O9.53,Tl1.4Ba2Ca2.6Cu3O9.53,"{'Ba': 2.0, 'Ca': 2.6, 'Cu': 3.0, 'O': 9.53, 'Tl': 1.4}",118.0,118.0,0.0,1,Tl1.4 Ba2 Ca2.6 Cu3 O9.53
4723,"[8938, 20025]",Ba2Ca2.7Mg0.3Cu5O12-z,Ba2Ca2.7Mg0.3Cu5O12,"{'Ba': 2.0, 'Ca': 2.7, 'Cu': 5.0, 'Mg': 0.30000000000000004, 'O': 12.0}",116.4,116.4,0.0,2,Ba2 Ca2.7 Mg0.3 Cu5 O12