,sc_id,supercon_formula,cleaned_formula,material_dict,highest_Tc,average_Tc,std_Tc,entry_count,composition
3507,[4799],Y0.6Ca0.4Ba1.3La0.7Cu3O7.12,Y0.6Ca0.4Ba1.3La0.7Cu3O7.12,"{'Ba': 1.3, 'Ca': 0.4, 'Cu': 3.0, 'La': 0.7000000000000001, 'O': 7.12, 'Y': 0.6000000000000001}",82.0,82.0,0.0,1,Y0.6 Ca0.4 Ba1.3 La0.7 Cu3 O7.12
3508,[4833],Nd1.3Ba1.3Ca0.4Cu3O6.912,Nd1.3Ba1.3Ca0.4Cu3O6.912,"{'Ba': 1.3, 'Ca': 0.4, 'Cu': 3.0, 'Nd': 1.3, 'O': 6.912}",13.0,13.0,0.0,1,Nd1.3 Ba1.3 Ca0.4 Cu3 O6.912
3509,[3214],La1.25Ca0.45Ba1.3Cu3O7.135,La1.25Ca0.45Ba1.3Cu3O7.135,"{'Ba': 1.3, 'Ca': 0.45, 'Cu': 3.0, 'La': 1.25, 'O': 7.135}",79.2,79.2,0.0,1,La1.25 Ca0.45 Ba1.3 Cu3 O7.135
3510,[6632],La1Ba1.3Ca0.7Cu3O6.92,La1Ba1.3Ca0.7Cu3O6.92,"{'Ba': 1.3, 'Ca': 0.7000000000000001, 'Cu': 3.0, 'La': 1.0, 'O': 6.92}",73.0,73.0,0.0,1,La1 Ba1.3 Ca0.7 Cu3 O6.92
3511,[7420],La1.3Yb0.6Ba1.3Ca1.2Cu5O11.74,La1.3Yb0.6Ba1.3Ca1.2Cu5O11.74,"{'Ba': 1.3, 'Ca': 1.2, 'Cu': 5.0, 'La': 1.3, 'O': 11.74, 'Yb': 0.6000000000000001}",73.0,73.0,0.0,1,La1.3 Yb0.6 Ba1.3 Ca1.2 Cu5 O11.74
3512,"[7831, 7848]",Tl1Ba1.3La0.7Cu1O5,Tl1Ba1.3La0.7Cu1O5,"{'Ba': 1.3, 'Cu': 1.0, 'La': 0.7000000000000001, 'O': 5.0, 'Tl': 1.0}",40.0,39.4,0.6000000000000001,2,Tl1 Ba1.3 La0.7 Cu1 O5
3513,[9949],Eu1Ba1.3Pr0.3Sr0.4Cu3O7,Eu1Ba1.3Pr0.3Sr0.4Cu3O7,"{'Ba': 1.3, 'Cu': 3.0, 'Eu': 1.0, 'O': 7.0, 'Pr': 0.30000000000000004, 'Sr': 0.4}",30.0,30.0,0.0,1,Eu1 Ba1.3 Pr0.3 Sr0.4 Cu3 O7
3514,[4171],La1.2Ba1.3Sr0.5Cu3O6.943,La1.2Ba1.3Sr0.5Cu3O6.943,"{'Ba': 1.3, 'Cu': 3.0, 'La': 1.2, 'O': 6.943, 'Sr': 0.5}",45.1,45.1,0.0,1,La1.2 Ba1.3 Sr0.5 Cu3 O6.943
3515,[4175],La1.3Ba1.3Sr0.4Cu3O6.928,La1.3Ba1.3Sr0.4Cu3O6.928,"{'Ba': 1.3, 'Cu': 3.0, 'La': 1.3, 'O': 6.928, 'Sr': 0.4}",45.2,45.2,0.0,1,La1.3 Ba1.3 Sr0.4 Cu3 O6.928
3516,[6913],Y1Ba1.3Sr0.7Cu3O6.98,Y1Ba1.3Sr0.7Cu3O6.98,"{'Ba': 1.3, 'Cu': 3.0, 'O': 6.98, 'Sr': 0.7000000000000001, 'Y': 1.0}",84.5,84.5,0.0,1,Y1 Ba1.3 Sr0.7 Cu3 O6.98
3517,[4806],Y0.4Cu0.6Ba1.3La0.7Cu3O7,Y0.4Cu0.6Ba1.3La0.7Cu3O7,"{'Ba': 1.3, 'Cu': 3.6, 'La': 0.7000000000000001, 'O': 7.0, 'Y': 0.4}",82.0,82.0,0.0,1,Y0.4 Cu3.6 Ba1.3 La0.7 O7
3518,[4840],Nd1.3Ba1.3Sr0.4O6.828,Nd1.3Ba1.3Sr0.4O6.828,"{'Ba': 1.3, 'Nd': 1.3, 'O': 6.828, 'Sr': 0.4}",35.0,35.0,0.0,1,Nd1.3 Ba1.3 Sr0.4 O6.828
3519,[11481],Ba1.34Eu2Ce0.66Cu3O8.96,Ba1.34Eu2Ce0.66Cu3O8.96,"{'Ba': 1.34, 'Ce': 0.66, 'Cu': 3.0, 'Eu': 2.0, 'O': 8.96}",15.0,15.0,0.0,1,Ba1.34 Eu2 Ce0.66 Cu3 O8.96
3520,[11483],Ba1.34Eu2Ce0.66Cu3O9-z,Ba1.34Eu2Ce0.66Cu3O9,"{'Ba': 1.34, 'Ce': 0.66, 'Cu': 3.0, 'Eu': 2.0, 'O': 9.0}",62.0,62.0,0.0,1,Ba1.34 Eu2 Ce0.66 Cu3 O9
3521,[11482],Ba1.34Eu2Ce0.66Cu3O9.02,Ba1.34Eu2Ce0.66Cu3O9.02,"{'Ba': 1.34, 'Ce': 0.66, 'Cu': 3.0, 'Eu': 2.0, 'O': 9.02}",25.0,25.0,0.0,1,Ba1.34 Eu2 Ce0.66 Cu3 O9.02
3522,[4419],Ca0.4Ba1.35La1.25Cu3O6.9,Ca0.4Ba1.35La1.25Cu3O6.9,"{'Ba': 1.35, 'Ca': 0.4, 'Cu': 3.0, 'La': 1.25, 'O': 6.9}",5.0,5.0,0.0,1,Ca0.4 Ba1.35 La1.25 Cu3 O6.9
3523,[4420],Ca0.4Ba1.35La1.25Cu3O6.92,Ca0.4Ba1.35La1.25Cu3O6.92,"{'Ba': 1.35, 'Ca': 0.4, 'Cu': 3.0, 'La': 1.25, 'O': 6.92}",14.4,14.4,0.0,1,Ca0.4 Ba1.35 La1.25 Cu3 O6.92
3524,[4421],Ca0.4Ba1.35La1.25Cu3O6.95,Ca0.4Ba1.35La1.25Cu3O6.95,"{'Ba': 1.35, 'Ca': 0.4, 'Cu': 3.0, 'La': 1.25, 'O': 6.95}",24.8,24.8,0.0,1,Ca0.4 Ba1.35 La1.25 Cu3 O6.95
3525,[8229],Ca0.4Ba1.35La1.25Cu3O6.98,Ca0.4Ba1.35La1.25Cu3O6.98,"{'Ba': 1.35, 'Ca': 0.4, 'Cu': 3.0, 'La': 1.25, 'O': 6.98}",40.1,40.1,0.0,1,Ca0.4 Ba1.35 La1.25 Cu3 O6.98
3526,[7666],Ca0.4La1.25Ba1.35Cu3O6.99,Ca0.4La1.25Ba1.35Cu3O6.99,"{'Ba': 1.35, 'Ca': 0.4, 'Cu': 3.0, 'La': 1.25, 'O': 6.99}",38.0,38.0,0.0,1,Ca0.4 La1.25 Ba1.35 Cu3 O6.99
3527,[8230],Ca0.4Ba1.35La1.25Cu3O7.05,Ca0.4Ba1.35La1.25Cu3O7.05,"{'Ba': 1.35, 'Ca': 0.4, 'Cu': 3.0, 'La': 1.25, 'O': 7.05}",60.0,60.0,0.0,1,Ca0.4 Ba1.35 La1.25 Cu3 O7.05
3528,[7667],Ca0.4La1.25Ba1.35Cu3O7.055,Ca0.4La1.25Ba1.35Cu3O7.055,"{'Ba': 1.35, 'Ca': 0.4, 'Cu': 3.0, 'La': 1.25, 'O': 7.055}",57.0,57.0,0.0,1,Ca0.4 La1.25 Ba1.35 Cu3 O7.055
3529,[4422],Ca0.4Ba1.35La1.25Cu3O7.08,Ca0.4Ba1.35La1.25Cu3O7.08,"{'Ba': 1.35, 'Ca': 0.4, 'Cu': 3.0, 'La': 1.25, 'O': 7.08}",68.6,68.6,0.0,1,Ca0.4 Ba1.35 La1.25 Cu3 O7.08
3530,[7668],Ca0.4La1.25Ba1.35Cu3O7.135,Ca0.4La1.25Ba1.35Cu3O7.135,"{'Ba': 1.35, 'Ca': 0.4, 'Cu': 3.0, 'La': 1.25, 'O': 7.135}",76.0,76.0,0.0,1,Ca0.4 La1.25 Ba1.35 Cu3 O7.135
3531,[8231],Ca0.4Ba1.35La1.25Cu3O7.14,Ca0.4Ba1.35La1.25Cu3O7.14,"{'Ba': 1.35, 'Ca': 0.4, 'Cu': 3.0, 'La': 1.25, 'O': 7.14}",78.8,78.8,0.0,1,Ca0.4 Ba1.35 La1.25 Cu3 O7.14
3532,[3213],La1.25Ca0.4Ba1.35Cu3O7.141,La1.25Ca0.4Ba1.35Cu3O7.141,"{'Ba': 1.35, 'Ca': 0.4, 'Cu': 3.0, 'La': 1.25, 'O': 7.141}",77.8,77.8,0.0,1,La1.25 Ca0.4 Ba1.35 Cu3 O7.141
3533,"[4423, 6682]",Ca0.4Ba1.35La1.25Cu3O7.15,Ca0.4Ba1.35La1.25Cu3O7.15,"{'Ba': 1.35, 'Ca': 0.4, 'Cu': 3.0, 'La': 1.25, 'O': 7.15}",80.0,79.4,0.6000000000000001,2,Ca0.4 Ba1.35 La1.25 Cu3 O7.15
3534,[23960],La1.25Ba1.35Ca0.4Cu3O7.16,La1.25Ba1.35Ca0.4Cu3O7.16,"{'Ba': 1.35, 'Ca': 0.4, 'Cu': 3.0, 'La': 1.25, 'O': 7.16}",79.8,79.8,0.0,1,La1.25 Ba1.35 Ca0.4 Cu3 O7.16
3535,[10194],Y1Ba1.36Sr0.64Cu4O8,Y1Ba1.36Sr0.64Cu4O8,"{'Ba': 1.3599999999999999, 'Cu': 4.0, 'O': 8.0, 'Sr': 0.64, 'Y': 1.0}",81.0,81.0,0.0,1,Y1 Ba1.36 Sr0.64 Cu4 O8
3536,"[8780, 8781]",La1.5Ba1.4Ca0.1Cu3O6.912,La1.5Ba1.4Ca0.1Cu3O6.912,"{'Ba': 1.4, 'Ca': 0.1, 'Cu': 3.0, 'La': 1.5, 'O': 6.912}",16.0,13.5,2.5,2,La1.5 Ba1.4 Ca0.1 Cu3 O6.912
3537,[8782],La1.5Ba1.4Ca0.1Cu3O6.932,La1.5Ba1.4Ca0.1Cu3O6.932,"{'Ba': 1.4, 'Ca': 0.1, 'Cu': 3.0, 'La': 1.5, 'O': 6.932}",25.0,25.0,0.0,1,La1.5 Ba1.4 Ca0.1 Cu3 O6.932
3538,[8783],La1.5Ba1.4Ca0.1Cu3O6.964,La1.5Ba1.4Ca0.1Cu3O6.964,"{'Ba': 1.4, 'Ca': 0.1, 'Cu': 3.0, 'La': 1.5, 'O': 6.964}",35.0,35.0,0.0,1,La1.5 Ba1.4 Ca0.1 Cu3 O6.964
3539,[2794],Yb0.9Ca0.1Ba1.4Sr0.6Cu4O8,Yb0.9Ca0.1Ba1.4Sr0.6Cu4O8,"{'Ba': 1.4, 'Ca': 0.1, 'Cu': 4.0, 'O': 8.0, 'Sr': 0.6000000000000001, 'Yb': 0.9}",85.0,85.0,0.0,1,Yb0.9 Ca0.1 Ba1.4 Sr0.6 Cu4 O8
3540,[4793],Y0.8Ca0.2Ba1.4La0.6Cu3O7.15,Y0.8Ca0.2Ba1.4La0.6Cu3O7.15,"{'Ba': 1.4, 'Ca': 0.2, 'Cu': 3.0, 'La': 0.6000000000000001, 'O': 7.15, 'Y': 0.8}",66.0,66.0,0.0,1,Y0.8 Ca0.2 Ba1.4 La0.6 Cu3 O7.15
3541,[5492],Er0.76Ca0.24Ba1.4Sr0.6Cu2.76Co0.24O6.84,Er0.76Ca0.24Ba1.4Sr0.6Cu2.76Co0.24O6.84,"{'Ba': 1.4, 'Ca': 0.24, 'Co': 0.24, 'Cu': 2.76, 'Er': 0.76, 'O': 6.84, 'Sr': 0.6000000000000001}",64.0,64.0,0.0,1,Er0.76 Ca0.24 Ba1.4 Sr0.6 Cu2.76 Co0.24 O6.84
3542,[4795],Y0.7Ca0.3Ba1.4La0.6Cu3O7.12,Y0.7Ca0.3Ba1.4La0.6Cu3O7.12,"{'Ba': 1.4, 'Ca': 0.30000000000000004, 'Cu': 3.0, 'La': 0.6000000000000001, 'O': 7.12, 'Y': 0.7000000000000001}",82.0,82.0,0.0,1,Y0.7 Ca0.3 Ba1.4 La0.6 Cu3 O7.12
3543,[3212],La1.25Ca0.35Ba1.4Cu3O7.108,La1.25Ca0.35Ba1.4Cu3O7.108,"{'Ba': 1.4, 'Ca': 0.35000000000000003, 'Cu': 3.0, 'La': 1.25, 'O': 7.108}",74.3,74.3,0.0,1,La1.25 Ca0.35 Ba1.4 Cu3 O7.108
3544,[5493],Er0.64Ca0.36Ba1.4Sr0.6Cu2.76Co0.24O6.8,Er0.64Ca0.36Ba1.4Sr0.6Cu2.76Co0.24O6.8,"{'Ba': 1.4, 'Ca': 0.36, 'Co': 0.24, 'Cu': 2.76, 'Er': 0.64, 'O': 6.8, 'Sr': 0.6000000000000001}",48.0,48.0,0.0,1,Er0.64 Ca0.36 Ba1.4 Sr0.6 Cu2.76 Co0.24 O6.8
3545,[4798],Y0.6Ca0.4Ba1.4La0.6Cu3O7.07,Y0.6Ca0.4Ba1.4La0.6Cu3O7.07,"{'Ba': 1.4, 'Ca': 0.4, 'Cu': 3.0, 'La': 0.6000000000000001, 'O': 7.07, 'Y': 0.6000000000000001}",83.0,83.0,0.0,1,Y0.6 Ca0.4 Ba1.4 La0.6 Cu3 O7.07
3546,[4834],Nd1.2Ba1.4Ca0.4Cu3O6.888,Nd1.2Ba1.4Ca0.4Cu3O6.888,"{'Ba': 1.4, 'Ca': 0.4, 'Cu': 3.0, 'Nd': 1.2, 'O': 6.888}",40.0,40.0,0.0,1,Nd1.2 Ba1.4 Ca0.4 Cu3 O6.888
3547,[5494],Er0.52Ca0.48Ba1.4Sr0.6Cu2.76Co0.24O6.77,Er0.52Ca0.48Ba1.4Sr0.6Cu2.76Co0.24O6.77,"{'Ba': 1.4, 'Ca': 0.48, 'Co': 0.24, 'Cu': 2.76, 'Er': 0.52, 'O': 6.77, 'Sr': 0.6000000000000001}",54.0,54.0,0.0,1,Er0.52 Ca0.48 Ba1.4 Sr0.6 Cu2.76 Co0.24 O6.77
3548,[6631],La1Ba1.4Ca0.6Cu3O6.9,La1Ba1.4Ca0.6Cu3O6.9,"{'Ba': 1.4, 'Ca': 0.6000000000000001, 'Cu': 3.0, 'La': 1.0, 'O': 6.9}",74.0,74.0,0.0,1,La1 Ba1.4 Ca0.6 Cu3 O6.9
3549,"[2136, 2293, 7832, 7847]",Tl1Ba1.4La0.6Cu1O5-Y,Tl1Ba1.4La0.6Cu1O5,"{'Ba': 1.4, 'Cu': 1.0, 'La': 0.6000000000000001, 'O': 5.0, 'Tl': 1.0}",45.0,32.625,9.2153065603,4,Tl1 Ba1.4 La0.6 Cu1 O5
3550,[3120],Dy1Ba1.4Sr0.6Cu3O6.91,Dy1Ba1.4Sr0.6Cu3O6.91,"{'Ba': 1.4, 'Cu': 3.0, 'Dy': 1.0, 'O': 6.91, 'Sr': 0.6000000000000001}",85.2,85.2,0.0,1,Dy1 Ba1.4 Sr0.6 Cu3 O6.91
3551,[9948],Eu1Ba1.4Pr0.3Sr0.3Cu3O6.92,Eu1Ba1.4Pr0.3Sr0.3Cu3O6.92,"{'Ba': 1.4, 'Cu': 3.0, 'Eu': 1.0, 'O': 6.92, 'Pr': 0.30000000000000004, 'Sr': 0.30000000000000004}",29.0,29.0,0.0,1,Eu1 Ba1.4 Pr0.3 Sr0.3 Cu3 O6.92
3552,[4164],La1.1Ba1.4Sr0.5Cu3O6.954,La1.1Ba1.4Sr0.5Cu3O6.954,"{'Ba': 1.4, 'Cu': 3.0, 'La': 1.1, 'O': 6.954, 'Sr': 0.5}",50.1,50.1,0.0,1,La1.1 Ba1.4 Sr0.5 Cu3 O6.954
3553,[4174],La1.3Ba1.4Sr0.3Cu3O6.91,La1.3Ba1.4Sr0.3Cu3O6.91,"{'Ba': 1.4, 'Cu': 3.0, 'La': 1.3, 'O': 6.91, 'Sr': 0.30000000000000004}",50.0,50.0,0.0,1,La1.3 Ba1.4 Sr0.3 Cu3 O6.91
3554,[11692],Nd1Ba1.4Sr0.6Cu3O6.94,Nd1Ba1.4Sr0.6Cu3O6.94,"{'Ba': 1.4, 'Cu': 3.0, 'Nd': 1.0, 'O': 6.94, 'Sr': 0.6000000000000001}",75.0,75.0,0.0,1,Nd1 Ba1.4 Sr0.6 Cu3 O6.94
3555,[4842],Nd1.2Ba1.4Sr0.4Cu3O6.731,Nd1.2Ba1.4Sr0.4Cu3O6.731,"{'Ba': 1.4, 'Cu': 3.0, 'Nd': 1.2, 'O': 6.731, 'Sr': 0.4}",65.0,65.0,0.0,1,Nd1.2 Ba1.4 Sr0.4 Cu3 O6.731
3556,[4841],Nd1.2Ba1.4Sr0.4Cu3O6.789,Nd1.2Ba1.4Sr0.4Cu3O6.789,"{'Ba': 1.4, 'Cu': 3.0, 'Nd': 1.2, 'O': 6.789, 'Sr': 0.4}",41.0,41.0,0.0,1,Nd1.2 Ba1.4 Sr0.4 Cu3 O6.789
3557,[6936],Ba1.4Sr0.6Yb1Cu3O6+z,Ba1.4Sr0.6Yb1Cu3O6,"{'Ba': 1.4, 'Cu': 3.0, 'O': 6.0, 'Sr': 0.6000000000000001, 'Yb': 1.0}",77.9,77.9,0.0,1,Ba1.4 Sr0.6 Yb1 Cu3 O6
3558,[6941],Ba1.4Sr0.6Yb1Cu3O6.66,Ba1.4Sr0.6Yb1Cu3O6.66,"{'Ba': 1.4, 'Cu': 3.0, 'O': 6.66, 'Sr': 0.6000000000000001, 'Yb': 1.0}",43.1,43.1,0.0,1,Ba1.4 Sr0.6 Yb1 Cu3 O6.66
3559,[1206],Y1Ba1.4Sr0.6Cu3O6.8,Y1Ba1.4Sr0.6Cu3O6.8,"{'Ba': 1.4, 'Cu': 3.0, 'O': 6.8, 'Sr': 0.6000000000000001, 'Y': 1.0}",86.0,86.0,0.0,1,Y1 Ba1.4 Sr0.6 Cu3 O6.8
3560,[7997],Y0.6Pr0.4Ba1.4Sr0.6Cu3O6.83,Y0.6Pr0.4Ba1.4Sr0.6Cu3O6.83,"{'Ba': 1.4, 'Cu': 3.0, 'O': 6.83, 'Pr': 0.4, 'Sr': 0.6000000000000001, 'Y': 0.6000000000000001}",45.0,45.0,0.0,1,Y0.6 Pr0.4 Ba1.4 Sr0.6 Cu3 O6.83
3561,[4805],Y0.4Cu0.6Ba1.4La0.6Cu3O6.95,Y0.4Cu0.6Ba1.4La0.6Cu3O6.95,"{'Ba': 1.4, 'Cu': 3.6, 'La': 0.6000000000000001, 'O': 6.95, 'Y': 0.4}",81.0,81.0,0.0,1,Y0.4 Cu3.6 Ba1.4 La0.6 O6.95
3562,[5738],Ho1Sr0.6Ba1.4Cu4O8,Ho1Sr0.6Ba1.4Cu4O8,"{'Ba': 1.4, 'Cu': 4.0, 'Ho': 1.0, 'O': 8.0, 'Sr': 0.6000000000000001}",68.3,68.3,0.0,1,Ho1 Sr0.6 Ba1.4 Cu4 O8
3563,[1197],Y1Ba1.4Sr0.6Cu4O7.8,Y1Ba1.4Sr0.6Cu4O7.8,"{'Ba': 1.4, 'Cu': 4.0, 'O': 7.8, 'Sr': 0.6000000000000001, 'Y': 1.0}",78.5,78.5,0.0,1,Y1 Ba1.4 Sr0.6 Cu4 O7.8
3564,[7708],Y1Ba1.4Sr0.6Cu4O7.95,Y1Ba1.4Sr0.6Cu4O7.95,"{'Ba': 1.4, 'Cu': 4.0, 'O': 7.95, 'Sr': 0.6000000000000001, 'Y': 1.0}",82.0,82.0,0.0,1,Y1 Ba1.4 Sr0.6 Cu4 O7.95
3565,"[7393, 7397, 10306]",Y1Ba1.4Sr0.6Cu4O8,Y1Ba1.4Sr0.6Cu4O8,"{'Ba': 1.4, 'Cu': 4.0, 'O': 8.0, 'Sr': 0.6000000000000001, 'Y': 1.0}",81.2,79.1666666667,2.3976840678,3,Y1 Ba1.4 Sr0.6 Cu4 O8
3566,"[2790, 3820]",Yb1Ba1.4Sr0.6Cu4O8,Yb1Ba1.4Sr0.6Cu4O8,"{'Ba': 1.4, 'Cu': 4.0, 'O': 8.0, 'Sr': 0.6000000000000001, 'Yb': 1.0}",80.0,80.0,0.0,2,Yb1 Ba1.4 Sr0.6 Cu4 O8
3567,[10535],Hg0.85Re0.15Ba1.44Sr0.56Ca2Cu3O8,Hg0.85Re0.15Ba1.44Sr0.56Ca2Cu3O8,"{'Ba': 1.44, 'Ca': 2.0, 'Cu': 3.0, 'Hg': 0.85, 'O': 8.0, 'Re': 0.15, 'Sr': 0.56}",128.7,128.7,0.0,1,Hg0.85 Re0.15 Ba1.44 Sr0.56 Ca2 Cu3 O8
3568,[4399],Ca0.3Ba1.45La1.25Cu3O6.96,Ca0.3Ba1.45La1.25Cu3O6.96,"{'Ba': 1.45, 'Ca': 0.30000000000000004, 'Cu': 3.0, 'La': 1.25, 'O': 6.96}",9.6,9.6,0.0,1,Ca0.3 Ba1.45 La1.25 Cu3 O6.96
3569,[4400],Ca0.3Ba1.45La1.25Cu3O7,Ca0.3Ba1.45La1.25Cu3O7,"{'Ba': 1.45, 'Ca': 0.30000000000000004, 'Cu': 3.0, 'La': 1.25, 'O': 7.0}",28.3,28.3,0.0,1,Ca0.3 Ba1.45 La1.25 Cu3 O7
3570,[4401],Ca0.3Ba1.45La1.25Cu3O7.05,Ca0.3Ba1.45La1.25Cu3O7.05,"{'Ba': 1.45, 'Ca': 0.30000000000000004, 'Cu': 3.0, 'La': 1.25, 'O': 7.05}",46.4,46.4,0.0,1,Ca0.3 Ba1.45 La1.25 Cu3 O7.05
3571,"[3211, 4402]",La1.25Ca0.3Ba1.45Cu3O7.11,La1.25Ca0.3Ba1.45Cu3O7.11,"{'Ba': 1.45, 'Ca': 0.30000000000000004, 'Cu': 3.0, 'La': 1.25, 'O': 7.11}",67.1,66.2,0.9,2,La1.25 Ca0.3 Ba1.45 Cu3 O7.11
3572,[4403],Ca0.3Ba1.45La1.25Cu3O7.12,Ca0.3Ba1.45La1.25Cu3O7.12,"{'Ba': 1.45, 'Ca': 0.30000000000000004, 'Cu': 3.0, 'La': 1.25, 'O': 7.12}",69.3,69.3,0.0,1,Ca0.3 Ba1.45 La1.25 Cu3 O7.12
3573,[23959],La1.25Ba1.45Ca0.3Cu3O7.15,La1.25Ba1.45Ca0.3Cu3O7.15,"{'Ba': 1.45, 'Ca': 0.30000000000000004, 'Cu': 3.0, 'La': 1.25, 'O': 7.15}",75.2,75.2,0.0,1,La1.25 Ba1.45 Ca0.3 Cu3 O7.15
3574,[6681],Ca0.3La0.7Ba1.45La0.55Cu3O7.16,Ca0.3La0.7Ba1.45La0.55Cu3O7.16,"{'Ba': 1.45, 'Ca': 0.30000000000000004, 'Cu': 3.0, 'La': 1.25, 'O': 7.16}",76.0,76.0,0.0,1,Ca0.3 La1.25 Ba1.45 Cu3 O7.16
3575,[12051],Ca0.3Ba1.45La1.25Cu3O7.172,Ca0.3Ba1.45La1.25Cu3O7.172,"{'Ba': 1.45, 'Ca': 0.30000000000000004, 'Cu': 3.0, 'La': 1.25, 'O': 7.172}",76.9,76.9,0.0,1,Ca0.3 Ba1.45 La1.25 Cu3 O7.172
3576,[7392],Y1Ba1.46Sr0.54Cu4O8,Y1Ba1.46Sr0.54Cu4O8,"{'Ba': 1.46, 'Cu': 4.0, 'O': 8.0, 'Sr': 0.54, 'Y': 1.0}",79.5,79.5,0.0,1,Y1 Ba1.46 Sr0.54 Cu4 O8
3577,"[469, 470]",Y1Ba1.48Sr0.52Cu3O7-Z,Y1Ba1.48Sr0.52Cu3O7,"{'Ba': 1.48, 'Cu': 3.0, 'O': 7.0, 'Sr': 0.52, 'Y': 1.0}",95.0,90.0,5.0,2,Y1 Ba1.48 Sr0.52 Cu3 O7
3578,[10325],La0.65Ca0.05Pr0.3Ba1.5Sr0.5Cu3O6.896,La0.65Ca0.05Pr0.3Ba1.5Sr0.5Cu3O6.896,"{'Ba': 1.5, 'Ca': 0.05, 'Cu': 3.0, 'La': 0.65, 'O': 6.896, 'Pr': 0.30000000000000004, 'Sr': 0.5}",14.0,14.0,0.0,1,La0.65 Ca0.05 Pr0.3 Ba1.5 Sr0.5 Cu3 O6.896
3579,[10321],La0.75Ca0.05Pr0.2Ba1.5Sr0.5Cu3O6.886,La0.75Ca0.05Pr0.2Ba1.5Sr0.5Cu3O6.886,"{'Ba': 1.5, 'Ca': 0.05, 'Cu': 3.0, 'La': 0.75, 'O': 6.886, 'Pr': 0.2, 'Sr': 0.5}",33.0,33.0,0.0,1,La0.75 Ca0.05 Pr0.2 Ba1.5 Sr0.5 Cu3 O6.886
3580,[10317],La0.85Ca0.05Pr0.1Ba1.5Sr0.5Cu3O6.865,La0.85Ca0.05Pr0.1Ba1.5Sr0.5Cu3O6.865,"{'Ba': 1.5, 'Ca': 0.05, 'Cu': 3.0, 'La': 0.85, 'O': 6.865, 'Pr': 0.1, 'Sr': 0.5}",50.0,50.0,0.0,1,La0.85 Ca0.05 Pr0.1 Ba1.5 Sr0.5 Cu3 O6.865
3581,[10313],La0.95Ca0.05Ba1.5Sr0.5Cu3O6.878,La0.95Ca0.05Ba1.5Sr0.5Cu3O6.878,"{'Ba': 1.5, 'Ca': 0.05, 'Cu': 3.0, 'La': 0.9500000000000001, 'O': 6.878, 'Sr': 0.5}",66.0,66.0,0.0,1,La0.95 Ca0.05 Ba1.5 Sr0.5 Cu3 O6.878
3582,[4789],Y0.9Ca0.1Ba1.5La0.5Cu3O7.13,Y0.9Ca0.1Ba1.5La0.5Cu3O7.13,"{'Ba': 1.5, 'Ca': 0.1, 'Cu': 3.0, 'La': 0.5, 'O': 7.13, 'Y': 0.9}",60.0,60.0,0.0,1,Y0.9 Ca0.1 Ba1.5 La0.5 Cu3 O7.13
3583,[9314],Y0.9Ca0.1Ba1.5La0.5Cu3O7.19,Y0.9Ca0.1Ba1.5La0.5Cu3O7.19,"{'Ba': 1.5, 'Ca': 0.1, 'Cu': 3.0, 'La': 0.5, 'O': 7.19, 'Y': 0.9}",57.9,57.9,0.0,1,Y0.9 Ca0.1 Ba1.5 La0.5 Cu3 O7.19
3584,[10326],La0.6Ca0.1Pr0.3Ba1.5Sr0.5Cu3O6.872,La0.6Ca0.1Pr0.3Ba1.5Sr0.5Cu3O6.872,"{'Ba': 1.5, 'Ca': 0.1, 'Cu': 3.0, 'La': 0.6000000000000001, 'O': 6.872, 'Pr': 0.30000000000000004, 'Sr': 0.5}",26.0,26.0,0.0,1,La0.6 Ca0.1 Pr0.3 Ba1.5 Sr0.5 Cu3 O6.872
3585,[10322],La0.7Ca0.1Pr0.2Ba1.5Sr0.5Cu3O6.862,La0.7Ca0.1Pr0.2Ba1.5Sr0.5Cu3O6.862,"{'Ba': 1.5, 'Ca': 0.1, 'Cu': 3.0, 'La': 0.7000000000000001, 'O': 6.862, 'Pr': 0.2, 'Sr': 0.5}",40.0,40.0,0.0,1,La0.7 Ca0.1 Pr0.2 Ba1.5 Sr0.5 Cu3 O6.862
3586,[10318],La0.8Ca0.1Pr0.1Ba1.5Sr0.5Cu3O6.856,La0.8Ca0.1Pr0.1Ba1.5Sr0.5Cu3O6.856,"{'Ba': 1.5, 'Ca': 0.1, 'Cu': 3.0, 'La': 0.8, 'O': 6.856, 'Pr': 0.1, 'Sr': 0.5}",56.0,56.0,0.0,1,La0.8 Ca0.1 Pr0.1 Ba1.5 Sr0.5 Cu3 O6.856
3587,[10314],La0.9Ca0.1Ba1.5Sr0.5Cu3O6.847,La0.9Ca0.1Ba1.5Sr0.5Cu3O6.847,"{'Ba': 1.5, 'Ca': 0.1, 'Cu': 3.0, 'La': 0.9, 'O': 6.8469999999999995, 'Sr': 0.5}",68.0,68.0,0.0,1,La0.9 Ca0.1 Ba1.5 Sr0.5 Cu3 O6.847
3588,[8777],La1.4Ba1.5Ca0.1Cu3O6.903,La1.4Ba1.5Ca0.1Cu3O6.903,"{'Ba': 1.5, 'Ca': 0.1, 'Cu': 3.0, 'La': 1.4, 'O': 6.9030000000000005}",25.0,25.0,0.0,1,La1.4 Ba1.5 Ca0.1 Cu3 O6.903
3589,[8778],La1.4Ba1.5Ca0.1Cu3O6.943,La1.4Ba1.5Ca0.1Cu3O6.943,"{'Ba': 1.5, 'Ca': 0.1, 'Cu': 3.0, 'La': 1.4, 'O': 6.943}",40.0,40.0,0.0,1,La1.4 Ba1.5 Ca0.1 Cu3 O6.943
3590,[8779],La1.4Ba1.5Ca0.1Cu3O6.982,La1.4Ba1.5Ca0.1Cu3O6.982,"{'Ba': 1.5, 'Ca': 0.1, 'Cu': 3.0, 'La': 1.4, 'O': 6.982}",51.0,51.0,0.0,1,La1.4 Ba1.5 Ca0.1 Cu3 O6.982
3591,[10327],La0.55Ca0.15Pr0.3Ba1.5Sr0.5Cu3O6.851,La0.55Ca0.15Pr0.3Ba1.5Sr0.5Cu3O6.851,"{'Ba': 1.5, 'Ca': 0.15, 'Cu': 3.0, 'La': 0.55, 'O': 6.851, 'Pr': 0.30000000000000004, 'Sr': 0.5}",27.0,27.0,0.0,1,La0.55 Ca0.15 Pr0.3 Ba1.5 Sr0.5 Cu3 O6.851
3592,[10323],La0.65Ca0.15Pr0.2Ba1.5Sr0.5Cu3O6.84,La0.65Ca0.15Pr0.2Ba1.5Sr0.5Cu3O6.84,"{'Ba': 1.5, 'Ca': 0.15, 'Cu': 3.0, 'La': 0.65, 'O': 6.84, 'Pr': 0.2, 'Sr': 0.5}",45.0,45.0,0.0,1,La0.65 Ca0.15 Pr0.2 Ba1.5 Sr0.5 Cu3 O6.84
3593,[10319],La0.75Ca0.15Pr0.1Ba1.5Sr0.5Cu3O6.845,La0.75Ca0.15Pr0.1Ba1.5Sr0.5Cu3O6.845,"{'Ba': 1.5, 'Ca': 0.15, 'Cu': 3.0, 'La': 0.75, 'O': 6.845, 'Pr': 0.1, 'Sr': 0.5}",62.0,62.0,0.0,1,La0.75 Ca0.15 Pr0.1 Ba1.5 Sr0.5 Cu3 O6.845
3594,[10315],La0.85Ca0.15Ba1.5Sr0.5Cu3O6.819,La0.85Ca0.15Ba1.5Sr0.5Cu3O6.819,"{'Ba': 1.5, 'Ca': 0.15, 'Cu': 3.0, 'La': 0.85, 'O': 6.819, 'Sr': 0.5}",71.0,71.0,0.0,1,La0.85 Ca0.15 Ba1.5 Sr0.5 Cu3 O6.819
3595,[6623],La1.35Ba1.5Ca0.15Cu3O6.67,La1.35Ba1.5Ca0.15Cu3O6.67,"{'Ba': 1.5, 'Ca': 0.15, 'Cu': 3.0, 'La': 1.35, 'O': 6.67}",43.0,43.0,0.0,1,La1.35 Ba1.5 Ca0.15 Cu3 O6.67
3596,[6017],Y0.74Ca0.16Sr0.6Ba1.5Cu2.78S0.22O7,Y0.74Ca0.16Sr0.6Ba1.5Cu2.78S0.22O7,"{'Ba': 1.5, 'Ca': 0.16, 'Cu': 2.7800000000000002, 'O': 7.0, 'S': 0.22, 'Sr': 0.6000000000000001, 'Y': 0.74}",77.9,77.9,0.0,1,Y0.74 Ca0.16 Sr0.6 Ba1.5 Cu2.78 S0.22 O7
3597,[10990],Hg2Ba1.5Sr0.5Y0.8Ca0.2Cu2O8-z,Hg2Ba1.5Sr0.5Y0.8Ca0.2Cu2O8,"{'Ba': 1.5, 'Ca': 0.2, 'Cu': 2.0, 'Hg': 2.0, 'O': 8.0, 'Sr': 0.5, 'Y': 0.8}",41.0,41.0,0.0,1,Hg2 Ba1.5 Sr0.5 Y0.8 Ca0.2 Cu2 O8
3598,[10328],La0.5Ca0.2Pr0.3Ba1.5Sr0.5Cu3O6.829,La0.5Ca0.2Pr0.3Ba1.5Sr0.5Cu3O6.829,"{'Ba': 1.5, 'Ca': 0.2, 'Cu': 3.0, 'La': 0.5, 'O': 6.829, 'Pr': 0.30000000000000004, 'Sr': 0.5}",34.0,34.0,0.0,1,La0.5 Ca0.2 Pr0.3 Ba1.5 Sr0.5 Cu3 O6.829
3599,[4792],Y0.8Ca0.2Ba1.5La0.5Cu3O7.11,Y0.8Ca0.2Ba1.5La0.5Cu3O7.11,"{'Ba': 1.5, 'Ca': 0.2, 'Cu': 3.0, 'La': 0.5, 'O': 7.11, 'Y': 0.8}",80.0,80.0,0.0,1,Y0.8 Ca0.2 Ba1.5 La0.5 Cu3 O7.11
3600,[9315],Y0.8Ca0.2Ba1.5La0.5Cu3O7.13,Y0.8Ca0.2Ba1.5La0.5Cu3O7.13,"{'Ba': 1.5, 'Ca': 0.2, 'Cu': 3.0, 'La': 0.5, 'O': 7.13, 'Y': 0.8}",73.0,73.0,0.0,1,Y0.8 Ca0.2 Ba1.5 La0.5 Cu3 O7.13
3601,[10324],La0.6Ca0.2Pr0.2Ba1.5Sr0.5Cu3O6.809,La0.6Ca0.2Pr0.2Ba1.5Sr0.5Cu3O6.809,"{'Ba': 1.5, 'Ca': 0.2, 'Cu': 3.0, 'La': 0.6000000000000001, 'O': 6.809, 'Pr': 0.2, 'Sr': 0.5}",47.0,47.0,0.0,1,La0.6 Ca0.2 Pr0.2 Ba1.5 Sr0.5 Cu3 O6.809
3602,[10320],La0.7Ca0.2Pr0.1Ba1.5Sr0.5Cu3O6.809,La0.7Ca0.2Pr0.1Ba1.5Sr0.5Cu3O6.809,"{'Ba': 1.5, 'Ca': 0.2, 'Cu': 3.0, 'La': 0.7000000000000001, 'O': 6.809, 'Pr': 0.1, 'Sr': 0.5}",63.0,63.0,0.0,1,La0.7 Ca0.2 Pr0.1 Ba1.5 Sr0.5 Cu3 O6.809
3603,[10316],La0.8Ca0.2Ba1.5Sr0.5Cu3O6.794,La0.8Ca0.2Ba1.5Sr0.5Cu3O6.794,"{'Ba': 1.5, 'Ca': 0.2, 'Cu': 3.0, 'La': 0.8, 'O': 6.7940000000000005, 'Sr': 0.5}",73.0,73.0,0.0,1,La0.8 Ca0.2 Ba1.5 Sr0.5 Cu3 O6.794
3604,[8774],La1.3Ba1.5Ca0.2Cu3O6.7,La1.3Ba1.5Ca0.2Cu3O6.7,"{'Ba': 1.5, 'Ca': 0.2, 'Cu': 3.0, 'La': 1.3, 'O': 6.7}",20.0,20.0,0.0,1,La1.3 Ba1.5 Ca0.2 Cu3 O6.7
3605,[6624],La1.3Ba1.5Ca0.2Cu3O6.72,La1.3Ba1.5Ca0.2Cu3O6.72,"{'Ba': 1.5, 'Ca': 0.2, 'Cu': 3.0, 'La': 1.3, 'O': 6.72}",48.0,48.0,0.0,1,La1.3 Ba1.5 Ca0.2 Cu3 O6.72
3606,[8775],La1.3Ba1.5Ca0.2Cu3O6.92,La1.3Ba1.5Ca0.2Cu3O6.92,"{'Ba': 1.5, 'Ca': 0.2, 'Cu': 3.0, 'La': 1.3, 'O': 6.92}",45.0,45.0,0.0,1,La1.3 Ba1.5 Ca0.2 Cu3 O6.92
3607,[8776],La1.3Ba1.5Ca0.2Cu3O6.94,La1.3Ba1.5Ca0.2Cu3O6.94,"{'Ba': 1.5, 'Ca': 0.2, 'Cu': 3.0, 'La': 1.3, 'O': 6.94}",52.0,52.0,0.0,1,La1.3 Ba1.5 Ca0.2 Cu3 O6.94
3608,[4829],Nd1.3Ba1.5Ca0.2Cu3O6.952,Nd1.3Ba1.5Ca0.2Cu3O6.952,"{'Ba': 1.5, 'Ca': 0.2, 'Cu': 3.0, 'Nd': 1.3, 'O': 6.952}",36.0,36.0,0.0,1,Nd1.3 Ba1.5 Ca0.2 Cu3 O6.952
3609,[6625],La1.25Ba1.5Ca0.25Cu3O6.74,La1.25Ba1.5Ca0.25Cu3O6.74,"{'Ba': 1.5, 'Ca': 0.25, 'Cu': 3.0, 'La': 1.25, 'O': 6.74}",70.0,70.0,0.0,1,La1.25 Ba1.5 Ca0.25 Cu3 O6.74
3610,[3221],La1.25Ca0.25Ba1.5Cu3O7.087,La1.25Ca0.25Ba1.5Cu3O7.087,"{'Ba': 1.5, 'Ca': 0.25, 'Cu': 3.0, 'La': 1.25, 'O': 7.087}",62.9,62.9,0.0,1,La1.25 Ca0.25 Ba1.5 Cu3 O7.087
3611,[8771],La1.2Ba1.5Ca0.3Cu3O6.72,La1.2Ba1.5Ca0.3Cu3O6.72,"{'Ba': 1.5, 'Ca': 0.30000000000000004, 'Cu': 3.0, 'La': 1.2, 'O': 6.72}",27.0,27.0,0.0,1,La1.2 Ba1.5 Ca0.3 Cu3 O6.72
3612,[8772],La1.2Ba1.5Ca0.3Cu3O6.93,La1.2Ba1.5Ca0.3Cu3O6.93,"{'Ba': 1.5, 'Ca': 0.30000000000000004, 'Cu': 3.0, 'La': 1.2, 'O': 6.93}",60.0,60.0,0.0,1,La1.2 Ba1.5 Ca0.3 Cu3 O6.93