,sc_id,supercon_formula,cleaned_formula,material_dict,highest_Tc,average_Tc,std_Tc,entry_count,composition
4407,"[1130, 7203]",Y0.7Ca0.3Ba2Cu4O8,Y0.7Ca0.3Ba2Cu4O8,"{'Ba': 2.0, 'Ca': 0.30000000000000004, 'Cu': 4.0, 'O': 8.0, 'Y': 0.7000000000000001}",90.0,84.75,5.25,2,Y0.7 Ca0.3 Ba2 Cu4 O8
4408,[4460],Y0.69Ca0.31Ba2Cu3O6,Y0.69Ca0.31Ba2Cu3O6,"{'Ba': 2.0, 'Ca': 0.31, 'Cu': 3.0, 'O': 6.0, 'Y': 0.6900000000000001}",27.7,27.7,0.0,1,Y0.69 Ca0.31 Ba2 Cu3 O6
4409,[3156],Y0.76Ca0.34Ba2Cu2.55Co0.45O6.95,Y0.76Ca0.34Ba2Cu2.55Co0.45O6.95,"{'Ba': 2.0, 'Ca': 0.34, 'Co': 0.45, 'Cu': 2.55, 'O': 6.95, 'Y': 0.76}",51.0,51.0,0.0,1,Y0.76 Ca0.34 Ba2 Cu2.55 Co0.45 O6.95
4410,[6828],Gd0.5Ca0.35Mo0.15Ba2Cu3O6.586,Gd0.5Ca0.35Mo0.15Ba2Cu3O6.586,"{'Ba': 2.0, 'Ca': 0.35000000000000003, 'Cu': 3.0, 'Gd': 0.5, 'Mo': 0.15, 'O': 6.586}",77.7,77.7,0.0,1,Gd0.5 Ca0.35 Mo0.15 Ba2 Cu3 O6.586
4411,[7107],Gd0.55Ca0.35Hf0.15Ba2Cu3O7.06,Gd0.55Ca0.35Hf0.15Ba2Cu3O7.06,"{'Ba': 2.0, 'Ca': 0.35000000000000003, 'Cu': 3.0, 'Gd': 0.55, 'Hf': 0.15, 'O': 7.06}",76.0,76.0,0.0,1,Gd0.55 Ca0.35 Hf0.15 Ba2 Cu3 O7.06
4412,[3171],Y0.64Ca0.36Ba2Cu2.64Co0.36O6.87,Y0.64Ca0.36Ba2Cu2.64Co0.36O6.87,"{'Ba': 2.0, 'Ca': 0.36, 'Co': 0.36, 'Cu': 2.64, 'O': 6.87, 'Y': 0.64}",82.0,82.0,0.0,1,Y0.64 Ca0.36 Ba2 Cu2.64 Co0.36 O6.87
4413,[8315],Hg1.4Tl0.6Ba2Y0.6Ca0.4Cu2O7.78,Hg1.4Tl0.6Ba2Y0.6Ca0.4Cu2O7.78,"{'Ba': 2.0, 'Ca': 0.4, 'Cu': 2.0, 'Hg': 1.4, 'O': 7.78, 'Tl': 0.6000000000000001, 'Y': 0.6000000000000001}",84.6,84.6,0.0,1,Hg1.4 Tl0.6 Ba2 Y0.6 Ca0.4 Cu2 O7.78
4414,[10172],Hg1.4Tl0.6Ba2Y0.6Ca0.4Cu2O8-z,Hg1.4Tl0.6Ba2Y0.6Ca0.4Cu2O8,"{'Ba': 2.0, 'Ca': 0.4, 'Cu': 2.0, 'Hg': 1.4, 'O': 8.0, 'Tl': 0.6000000000000001, 'Y': 0.6000000000000001}",84.3,84.3,0.0,1,Hg1.4 Tl0.6 Ba2 Y0.6 Ca0.4 Cu2 O8
4415,[3366],Nd0.6Ca0.4Ba2Cu2.2Hg0.8O6+z,Nd0.6Ca0.4Ba2Cu2.2Hg0.8O6,"{'Ba': 2.0, 'Ca': 0.4, 'Cu': 2.2, 'Hg': 0.8, 'Nd': 0.6000000000000001, 'O': 6.0}",108.0,108.0,0.0,1,Nd0.6 Ca0.4 Ba2 Cu2.2 Hg0.8 O6
4416,[4871],Er0.45Ca0.4Hf0.15Ba2Cu3O7.1,Er0.45Ca0.4Hf0.15Ba2Cu3O7.1,"{'Ba': 2.0, 'Ca': 0.4, 'Cu': 3.0, 'Er': 0.45, 'Hf': 0.15, 'O': 7.1}",66.0,66.0,0.0,1,Er0.45 Ca0.4 Hf0.15 Ba2 Cu3 O7.1
4417,[7108],Gd0.45Ca0.4Hf0.15Ba2Cu3O7.08,Gd0.45Ca0.4Hf0.15Ba2Cu3O7.08,"{'Ba': 2.0, 'Ca': 0.4, 'Cu': 3.0, 'Gd': 0.45, 'Hf': 0.15, 'O': 7.08}",71.9,71.9,0.0,1,Gd0.45 Ca0.4 Hf0.15 Ba2 Cu3 O7.08
4418,[6829],Gd0.45Ca0.4Mo0.15Ba2Cu3O6.537,Gd0.45Ca0.4Mo0.15Ba2Cu3O6.537,"{'Ba': 2.0, 'Ca': 0.4, 'Cu': 3.0, 'Gd': 0.45, 'Mo': 0.15, 'O': 6.537}",73.0,73.0,0.0,1,Gd0.45 Ca0.4 Mo0.15 Ba2 Cu3 O6.537
4419,[5699],Lu0.6Ca0.4Ba2Cu3O6+z,Lu0.6Ca0.4Ba2Cu3O6,"{'Ba': 2.0, 'Ca': 0.4, 'Cu': 3.0, 'Lu': 0.6000000000000001, 'O': 6.0}",74.0,74.0,0.0,1,Lu0.6 Ca0.4 Ba2 Cu3 O6
4420,[2537],Y0.2Ca0.4Pr0.4Ba2Cu3O7,Y0.2Ca0.4Pr0.4Ba2Cu3O7,"{'Ba': 2.0, 'Ca': 0.4, 'Cu': 3.0, 'O': 7.0, 'Pr': 0.4, 'Y': 0.2}",36.5,36.5,0.0,1,Y0.2 Ca0.4 Pr0.4 Ba2 Cu3 O7
4421,"[6318, 7568]",Pr0.6Ca0.4Ba2Cu3O7-Z,Pr0.6Ca0.4Ba2Cu3O7,"{'Ba': 2.0, 'Ca': 0.4, 'Cu': 3.0, 'O': 7.0, 'Pr': 0.6000000000000001}",39.0,28.25,10.75,2,Pr0.6 Ca0.4 Ba2 Cu3 O7
4422,[7361],La1.8Er0.2Ba2Ca0.4Cu4.4O10.371,La1.8Er0.2Ba2Ca0.4Cu4.4O10.371,"{'Ba': 2.0, 'Ca': 0.4, 'Cu': 4.4, 'Er': 0.2, 'La': 1.8, 'O': 10.371}",40.0,40.0,0.0,1,La1.8 Er0.2 Ba2 Ca0.4 Cu4.4 O10.371
4423,[7370],La1.8Gd0.2Ba2Ca0.4Cu4.4O10.344,La1.8Gd0.2Ba2Ca0.4Cu4.4O10.344,"{'Ba': 2.0, 'Ca': 0.4, 'Cu': 4.4, 'Gd': 0.2, 'La': 1.8, 'O': 10.344}",39.0,39.0,0.0,1,La1.8 Gd0.2 Ba2 Ca0.4 Cu4.4 O10.344
4424,[10947],La1.8Pr0.2Ca0.4Ba2Cu4.4O10.7348,La1.8Pr0.2Ca0.4Ba2Cu4.4O10.7348,"{'Ba': 2.0, 'Ca': 0.4, 'Cu': 4.4, 'La': 1.8, 'O': 10.7348, 'Pr': 0.2}",35.4,35.4,0.0,1,La1.8 Pr0.2 Ca0.4 Ba2 Cu4.4 O10.7348
4425,[20294],Tl0.5Ba2Ca0.5Mg1.5Cu1Zn2.5O10-z,Tl0.5Ba2Ca0.5Mg1.5Cu1Zn2.5O10,"{'Ba': 2.0, 'Ca': 0.5, 'Cu': 1.0, 'Mg': 1.5, 'O': 10.0, 'Tl': 0.5, 'Zn': 2.5}",115.0,115.0,0.0,1,Tl0.5 Ba2 Ca0.5 Mg1.5 Cu1 Zn2.5 O10
4426,[3365],Nd0.5Ca0.5Ba2Cu2HgO6+z,Nd0.5Ca0.5Ba2Cu2HgO6,"{'Ba': 2.0, 'Ca': 0.5, 'Cu': 2.0, 'Hg': 1.0, 'Nd': 0.5, 'O': 6.0}",110.0,110.0,0.0,1,Nd0.5 Ca0.5 Ba2 Cu2 Hg1 O6
4427,[8316],Hg1.4Tl0.6Ba2Y0.5Ca0.5Cu2O7.74,Hg1.4Tl0.6Ba2Y0.5Ca0.5Cu2O7.74,"{'Ba': 2.0, 'Ca': 0.5, 'Cu': 2.0, 'Hg': 1.4, 'O': 7.74, 'Tl': 0.6000000000000001, 'Y': 0.5}",84.0,84.0,0.0,1,Hg1.4 Tl0.6 Ba2 Y0.5 Ca0.5 Cu2 O7.74
4428,[10173],Hg1.4Tl0.6Ba2Y0.5Ca0.5Cu2O8-z,Hg1.4Tl0.6Ba2Y0.5Ca0.5Cu2O8,"{'Ba': 2.0, 'Ca': 0.5, 'Cu': 2.0, 'Hg': 1.4, 'O': 8.0, 'Tl': 0.6000000000000001, 'Y': 0.5}",84.3,84.3,0.0,1,Hg1.4 Tl0.6 Ba2 Y0.5 Ca0.5 Cu2 O8
4429,"[10135, 10424]",Hg1.5Pb0.5Ba2Y0.5Ca0.5Cu2O8-z,Hg1.5Pb0.5Ba2Y0.5Ca0.5Cu2O8,"{'Ba': 2.0, 'Ca': 0.5, 'Cu': 2.0, 'Hg': 1.5, 'O': 8.0, 'Pb': 0.5, 'Y': 0.5}",84.0,84.0,0.0,2,Hg1.5 Pb0.5 Ba2 Y0.5 Ca0.5 Cu2 O8
4430,[20790],Tl0.25Li0.25Ba2Ca0.5Mg1.5Cu2Ni1.5O10-z,Tl0.25Li0.25Ba2Ca0.5Mg1.5Cu2Ni1.5O10,"{'Ba': 2.0, 'Ca': 0.5, 'Cu': 2.0, 'Li': 0.25, 'Mg': 1.5, 'Ni': 1.5, 'O': 10.0, 'Tl': 0.25}",103.0,103.0,0.0,1,Tl0.25 Li0.25 Ba2 Ca0.5 Mg1.5 Cu2 Ni1.5 O10
4431,"[20794, 20800]",Tl0.5Ba2Ca0.5Mg1.5Cu2Ni1.5O10-z,Tl0.5Ba2Ca0.5Mg1.5Cu2Ni1.5O10,"{'Ba': 2.0, 'Ca': 0.5, 'Cu': 2.0, 'Mg': 1.5, 'Ni': 1.5, 'O': 10.0, 'Tl': 0.5}",103.5,101.75,1.75,2,Tl0.5 Ba2 Ca0.5 Mg1.5 Cu2 Ni1.5 O10
4432,[2143],Tl1Ba2Ca0.5Nd0.5Cu2O6.86,Tl1Ba2Ca0.5Nd0.5Cu2O6.86,"{'Ba': 2.0, 'Ca': 0.5, 'Cu': 2.0, 'Nd': 0.5, 'O': 6.86, 'Tl': 1.0}",40.0,40.0,0.0,1,Tl1 Ba2 Ca0.5 Nd0.5 Cu2 O6.86
4433,[10624],Eu0.2Pr0.3Ca0.5Ba2Cu3O7-z,Eu0.2Pr0.3Ca0.5Ba2Cu3O7,"{'Ba': 2.0, 'Ca': 0.5, 'Cu': 3.0, 'Eu': 0.2, 'O': 7.0, 'Pr': 0.30000000000000004}",96.0,96.0,0.0,1,Eu0.2 Pr0.3 Ca0.5 Ba2 Cu3 O7
4434,[10625],Gd0.2Pr0.3Ca0.5Ba2Cu3O7-z,Gd0.2Pr0.3Ca0.5Ba2Cu3O7,"{'Ba': 2.0, 'Ca': 0.5, 'Cu': 3.0, 'Gd': 0.2, 'O': 7.0, 'Pr': 0.30000000000000004}",96.0,96.0,0.0,1,Gd0.2 Pr0.3 Ca0.5 Ba2 Cu3 O7
4435,[10620],La0.2Pr0.3Ca0.5Ba2Cu3O7-z,La0.2Pr0.3Ca0.5Ba2Cu3O7,"{'Ba': 2.0, 'Ca': 0.5, 'Cu': 3.0, 'La': 0.2, 'O': 7.0, 'Pr': 0.30000000000000004}",100.0,100.0,0.0,1,La0.2 Pr0.3 Ca0.5 Ba2 Cu3 O7
4436,[10622],Nd0.2Pr0.3Ca0.5Ba2Cu3O7-z,Nd0.2Pr0.3Ca0.5Ba2Cu3O7,"{'Ba': 2.0, 'Ca': 0.5, 'Cu': 3.0, 'Nd': 0.2, 'O': 7.0, 'Pr': 0.30000000000000004}",100.0,100.0,0.0,1,Nd0.2 Pr0.3 Ca0.5 Ba2 Cu3 O7
4437,[10623],Sm0.2Pr0.3Ca0.5Ba2Cu3O7-z,Sm0.2Pr0.3Ca0.5Ba2Cu3O7,"{'Ba': 2.0, 'Ca': 0.5, 'Cu': 3.0, 'O': 7.0, 'Pr': 0.30000000000000004, 'Sm': 0.2}",98.0,98.0,0.0,1,Sm0.2 Pr0.3 Ca0.5 Ba2 Cu3 O7
4438,[10626],Y0.2Pr0.3Ca0.5Ba2Cu3O7-z,Y0.2Pr0.3Ca0.5Ba2Cu3O7,"{'Ba': 2.0, 'Ca': 0.5, 'Cu': 3.0, 'O': 7.0, 'Pr': 0.30000000000000004, 'Y': 0.2}",105.0,105.0,0.0,1,Y0.2 Pr0.3 Ca0.5 Ba2 Cu3 O7
4439,"[6316, 6319, 7569, 8248, 10621]",Pr0.5Ca0.5Ba2Cu3O7-Z,Pr0.5Ca0.5Ba2Cu3O7,"{'Ba': 2.0, 'Ca': 0.5, 'Cu': 3.0, 'O': 7.0, 'Pr': 0.5}",105.0,66.6,29.000689647,5,Pr0.5 Ca0.5 Ba2 Cu3 O7
4440,[20467],Tl0.5Ba2Ca0.5Mg1.5Cu3.5O10-z,Tl0.5Ba2Ca0.5Mg1.5Cu3.5O10,"{'Ba': 2.0, 'Ca': 0.5, 'Cu': 3.5, 'Mg': 1.5, 'O': 10.0, 'Tl': 0.5}",98.0,98.0,0.0,1,Tl0.5 Ba2 Ca0.5 Mg1.5 Cu3.5 O10
4441,[7362],La1.75Er0.25Ba2Ca0.5Cu4.5O10.662,La1.75Er0.25Ba2Ca0.5Cu4.5O10.662,"{'Ba': 2.0, 'Ca': 0.5, 'Cu': 4.5, 'Er': 0.25, 'La': 1.75, 'O': 10.662}",66.0,66.0,0.0,1,La1.75 Er0.25 Ba2 Ca0.5 Cu4.5 O10.662
4442,[2105],Tl2Ba2Ca0.52Y0.48Cu2O8+Z,Tl2Ba2Ca0.52Y0.48Cu2O8,"{'Ba': 2.0, 'Ca': 0.52, 'Cu': 2.0, 'O': 8.0, 'Tl': 2.0, 'Y': 0.48}",22.0,22.0,0.0,1,Tl2 Ba2 Ca0.52 Y0.48 Cu2 O8
4443,[8317],Hg1.4Tl0.6Ba2Y0.4Ca0.6Cu2O7.71,Hg1.4Tl0.6Ba2Y0.4Ca0.6Cu2O7.71,"{'Ba': 2.0, 'Ca': 0.6000000000000001, 'Cu': 2.0, 'Hg': 1.4, 'O': 7.71, 'Tl': 0.6000000000000001, 'Y': 0.4}",68.6,68.6,0.0,1,Hg1.4 Tl0.6 Ba2 Y0.4 Ca0.6 Cu2 O7.71
4444,"[4989, 10174]",Hg1.4Tl0.6Ba2Y0.4Ca0.6Cu2O8-z,Hg1.4Tl0.6Ba2Y0.4Ca0.6Cu2O8,"{'Ba': 2.0, 'Ca': 0.6000000000000001, 'Cu': 2.0, 'Hg': 1.4, 'O': 8.0, 'Tl': 0.6000000000000001, 'Y': 0.4}",84.0,76.7,7.3,2,Hg1.4 Tl0.6 Ba2 Y0.4 Ca0.6 Cu2 O8
4445,[4987],Hg2Ba2Y0.4Ca0.6Cu2O8-z,Hg2Ba2Y0.4Ca0.6Cu2O8,"{'Ba': 2.0, 'Ca': 0.6000000000000001, 'Cu': 2.0, 'Hg': 2.0, 'O': 8.0, 'Y': 0.4}",45.0,45.0,0.0,1,Hg2 Ba2 Y0.4 Ca0.6 Cu2 O8
4446,[1446],Tl1Ba2Ca0.6Y0.4Cu2O7,Tl1Ba2Ca0.6Y0.4Cu2O7,"{'Ba': 2.0, 'Ca': 0.6000000000000001, 'Cu': 2.0, 'O': 7.0, 'Tl': 1.0, 'Y': 0.4}",95.8,95.8,0.0,1,Tl1 Ba2 Ca0.6 Y0.4 Cu2 O7
4447,[2104],Tl2Ba2Ca0.6Y0.4Cu2O8+Z,Tl2Ba2Ca0.6Y0.4Cu2O8,"{'Ba': 2.0, 'Ca': 0.6000000000000001, 'Cu': 2.0, 'O': 8.0, 'Tl': 2.0, 'Y': 0.4}",45.0,45.0,0.0,1,Tl2 Ba2 Ca0.6 Y0.4 Cu2 O8
4448,"[6317, 6320]",Pr0.4Ca0.6Ba2Cu3O7-Z,Pr0.4Ca0.6Ba2Cu3O7,"{'Ba': 2.0, 'Ca': 0.6000000000000001, 'Cu': 3.0, 'O': 7.0, 'Pr': 0.4}",75.0,54.0,21.0,2,Pr0.4 Ca0.6 Ba2 Cu3 O7
4449,[7363],La1.7Er0.3Ba2Ca0.6Cu4.6O10.92,La1.7Er0.3Ba2Ca0.6Cu4.6O10.92,"{'Ba': 2.0, 'Ca': 0.6000000000000001, 'Cu': 4.6, 'Er': 0.30000000000000004, 'La': 1.7000000000000002, 'O': 10.92}",70.0,70.0,0.0,1,La1.7 Er0.3 Ba2 Ca0.6 Cu4.6 O10.92
4450,[7412],La1.7Gd0.3Ca0.6Ba2Cu4.6O10+z,La1.7Gd0.3Ca0.6Ba2Cu4.6O10,"{'Ba': 2.0, 'Ca': 0.6000000000000001, 'Cu': 4.6, 'Gd': 0.30000000000000004, 'La': 1.7000000000000002, 'O': 10.0}",64.0,64.0,0.0,1,La1.7 Gd0.3 Ca0.6 Ba2 Cu4.6 O10
4451,[7371],La1.7Gd0.3Ba2Ca0.6Cu4.6O10.9,La1.7Gd0.3Ba2Ca0.6Cu4.6O10.9,"{'Ba': 2.0, 'Ca': 0.6000000000000001, 'Cu': 4.6, 'Gd': 0.30000000000000004, 'La': 1.7000000000000002, 'O': 10.9}",64.0,64.0,0.0,1,La1.7 Gd0.3 Ba2 Ca0.6 Cu4.6 O10.9
4452,[10054],La1.7Nd0.3Ba2Ca0.6Cu4.6O7.135,La1.7Nd0.3Ba2Ca0.6Cu4.6O7.135,"{'Ba': 2.0, 'Ca': 0.6000000000000001, 'Cu': 4.6, 'La': 1.7000000000000002, 'Nd': 0.30000000000000004, 'O': 7.135}",77.0,77.0,0.0,1,La1.7 Nd0.3 Ba2 Ca0.6 Cu4.6 O7.135
4453,[7408],La1.7Nd0.3Ca0.6Ba2Cu4.6O11.892,La1.7Nd0.3Ca0.6Ba2Cu4.6O11.892,"{'Ba': 2.0, 'Ca': 0.6000000000000001, 'Cu': 4.6, 'La': 1.7000000000000002, 'Nd': 0.30000000000000004, 'O': 11.892}",78.0,78.0,0.0,1,La1.7 Nd0.3 Ca0.6 Ba2 Cu4.6 O11.892
4454,[10948],La1.7Pr0.3Ca0.6Ba2Cu4.6O10.8862,La1.7Pr0.3Ca0.6Ba2Cu4.6O10.8862,"{'Ba': 2.0, 'Ca': 0.6000000000000001, 'Cu': 4.6, 'La': 1.7000000000000002, 'O': 10.8862, 'Pr': 0.30000000000000004}",47.6,47.6,0.0,1,La1.7 Pr0.3 Ca0.6 Ba2 Cu4.6 O10.8862
4455,[1445],Tl1Ba2Ca0.65Y0.35Cu2O7,Tl1Ba2Ca0.65Y0.35Cu2O7,"{'Ba': 2.0, 'Ca': 0.65, 'Cu': 2.0, 'O': 7.0, 'Tl': 1.0, 'Y': 0.35000000000000003}",102.0,102.0,0.0,1,Tl1 Ba2 Ca0.65 Y0.35 Cu2 O7
4456,"[2103, 3842]",Tl2Ba2Ca0.65Y0.35Cu2O8+Z,Tl2Ba2Ca0.65Y0.35Cu2O8,"{'Ba': 2.0, 'Ca': 0.65, 'Cu': 2.0, 'O': 8.0, 'Tl': 2.0, 'Y': 0.35000000000000003}",58.0,44.0,14.0,2,Tl2 Ba2 Ca0.65 Y0.35 Cu2 O8
4457,[10699],Tl2Ba2Ca0.7Y0.3Cu1.96Co0.04O8+z,Tl2Ba2Ca0.7Y0.3Cu1.96Co0.04O8,"{'Ba': 2.0, 'Ca': 0.7000000000000001, 'Co': 0.04, 'Cu': 1.96, 'O': 8.0, 'Tl': 2.0, 'Y': 0.30000000000000004}",21.5,21.5,0.0,1,Tl2 Ba2 Ca0.7 Y0.3 Cu1.96 Co0.04 O8
4458,"[1442, 7852]",Tl1Ba2Ca0.7Gd0.3Cu2O7,Tl1Ba2Ca0.7Gd0.3Cu2O7,"{'Ba': 2.0, 'Ca': 0.7000000000000001, 'Cu': 2.0, 'Gd': 0.30000000000000004, 'O': 7.0, 'Tl': 1.0}",84.5,81.25,3.25,2,Tl1 Ba2 Ca0.7 Gd0.3 Cu2 O7
4459,[8318],Hg1.4Tl0.6Ba2Y0.3Ca0.7Cu2O7.68,Hg1.4Tl0.6Ba2Y0.3Ca0.7Cu2O7.68,"{'Ba': 2.0, 'Ca': 0.7000000000000001, 'Cu': 2.0, 'Hg': 1.4, 'O': 7.68, 'Tl': 0.6000000000000001, 'Y': 0.30000000000000004}",66.4,66.4,0.0,1,Hg1.4 Tl0.6 Ba2 Y0.3 Ca0.7 Cu2 O7.68
4460,[10175],Hg1.4Tl0.6Ba2Y0.3Ca0.7Cu2O8-z,Hg1.4Tl0.6Ba2Y0.3Ca0.7Cu2O8,"{'Ba': 2.0, 'Ca': 0.7000000000000001, 'Cu': 2.0, 'Hg': 1.4, 'O': 8.0, 'Tl': 0.6000000000000001, 'Y': 0.30000000000000004}",52.3,52.3,0.0,1,Hg1.4 Tl0.6 Ba2 Y0.3 Ca0.7 Cu2 O8
4461,[10136],Hg1.5Pb0.5Ba2Y0.3Ca0.7Cu2O8-z,Hg1.5Pb0.5Ba2Y0.3Ca0.7Cu2O8,"{'Ba': 2.0, 'Ca': 0.7000000000000001, 'Cu': 2.0, 'Hg': 1.5, 'O': 8.0, 'Pb': 0.5, 'Y': 0.30000000000000004}",80.0,80.0,0.0,1,Hg1.5 Pb0.5 Ba2 Y0.3 Ca0.7 Cu2 O8
4462,[1450],Tl1Ba2Ca0.7Nd0.3Cu2O7,Tl1Ba2Ca0.7Nd0.3Cu2O7,"{'Ba': 2.0, 'Ca': 0.7000000000000001, 'Cu': 2.0, 'Nd': 0.30000000000000004, 'O': 7.0, 'Tl': 1.0}",95.5,95.5,0.0,1,Tl1 Ba2 Ca0.7 Nd0.3 Cu2 O7
4463,"[2102, 10698]",Tl2Ba2Ca0.7Y0.3Cu2O8+Z,Tl2Ba2Ca0.7Y0.3Cu2O8,"{'Ba': 2.0, 'Ca': 0.7000000000000001, 'Cu': 2.0, 'O': 8.0, 'Tl': 2.0, 'Y': 0.30000000000000004}",73.2,52.4,20.8,2,Tl2 Ba2 Ca0.7 Y0.3 Cu2 O8
4464,[7364],La1.65Er0.35Ba2Ca0.7Cu4.7O11.166,La1.65Er0.35Ba2Ca0.7Cu4.7O11.166,"{'Ba': 2.0, 'Ca': 0.7000000000000001, 'Cu': 4.7, 'Er': 0.35000000000000003, 'La': 1.65, 'O': 11.166}",71.0,71.0,0.0,1,La1.65 Er0.35 Ba2 Ca0.7 Cu4.7 O11.166
4465,"[10164, 10165]",Hg1.5Pb0.5Ba2Y0.29Ca0.71Cu2O8-z,Hg1.5Pb0.5Ba2Y0.29Ca0.71Cu2O8,"{'Ba': 2.0, 'Ca': 0.71, 'Cu': 2.0, 'Hg': 1.5, 'O': 8.0, 'Pb': 0.5, 'Y': 0.29}",80.4,70.4,10.0,2,Hg1.5 Pb0.5 Ba2 Y0.29 Ca0.71 Cu2 O8
4466,[10695],Tl2Ba2Ca0.75Y0.25Cu1.96Co0.04O8+z,Tl2Ba2Ca0.75Y0.25Cu1.96Co0.04O8,"{'Ba': 2.0, 'Ca': 0.75, 'Co': 0.04, 'Cu': 1.96, 'O': 8.0, 'Tl': 2.0, 'Y': 0.25}",39.9,39.9,0.0,1,Tl2 Ba2 Ca0.75 Y0.25 Cu1.96 Co0.04 O8
4467,[10696],Tl2Ba2Ca0.75Y0.25Cu1.92Co0.08O8+z,Tl2Ba2Ca0.75Y0.25Cu1.92Co0.08O8,"{'Ba': 2.0, 'Ca': 0.75, 'Co': 0.08, 'Cu': 1.92, 'O': 8.0, 'Tl': 2.0, 'Y': 0.25}",29.7,29.7,0.0,1,Tl2 Ba2 Ca0.75 Y0.25 Cu1.92 Co0.08 O8
4468,[10697],Tl2Ba2Ca0.75Y0.25Cu1.88Co0.12O8+z,Tl2Ba2Ca0.75Y0.25Cu1.88Co0.12O8,"{'Ba': 2.0, 'Ca': 0.75, 'Co': 0.12, 'Cu': 1.88, 'O': 8.0, 'Tl': 2.0, 'Y': 0.25}",19.3,19.3,0.0,1,Tl2 Ba2 Ca0.75 Y0.25 Cu1.88 Co0.12 O8
4469,"[2101, 3841, 10694]",Tl2Ba2Ca0.75Y0.25Cu2O8+Z,Tl2Ba2Ca0.75Y0.25Cu2O8,"{'Ba': 2.0, 'Ca': 0.75, 'Cu': 2.0, 'O': 8.0, 'Tl': 2.0, 'Y': 0.25}",73.2,62.0,8.0266223698,3,Tl2 Ba2 Ca0.75 Y0.25 Cu2 O8
4470,[11862],Tl2Ba2Ca0.8Ce0.2Cu2O8,Tl2Ba2Ca0.8Ce0.2Cu2O8,"{'Ba': 2.0, 'Ca': 0.8, 'Ce': 0.2, 'Cu': 2.0, 'O': 8.0, 'Tl': 2.0}",103.0,103.0,0.0,1,Tl2 Ba2 Ca0.8 Ce0.2 Cu2 O8
4471,[10691],Tl2Ba2Ca0.8Y0.2Cu1.96Co0.04O8+z,Tl2Ba2Ca0.8Y0.2Cu1.96Co0.04O8,"{'Ba': 2.0, 'Ca': 0.8, 'Co': 0.04, 'Cu': 1.96, 'O': 8.0, 'Tl': 2.0, 'Y': 0.2}",66.8,66.8,0.0,1,Tl2 Ba2 Ca0.8 Y0.2 Cu1.96 Co0.04 O8
4472,[10692],Tl2Ba2Ca0.8Y0.2Cu1.92Co0.08O8+z,Tl2Ba2Ca0.8Y0.2Cu1.92Co0.08O8,"{'Ba': 2.0, 'Ca': 0.8, 'Co': 0.08, 'Cu': 1.92, 'O': 8.0, 'Tl': 2.0, 'Y': 0.2}",60.1,60.1,0.0,1,Tl2 Ba2 Ca0.8 Y0.2 Cu1.92 Co0.08 O8
4473,[10693],Tl2Ba2Ca0.8Y0.2Cu1.88Co0.12O8+z,Tl2Ba2Ca0.8Y0.2Cu1.88Co0.12O8,"{'Ba': 2.0, 'Ca': 0.8, 'Co': 0.12, 'Cu': 1.88, 'O': 8.0, 'Tl': 2.0, 'Y': 0.2}",45.1,45.1,0.0,1,Tl2 Ba2 Ca0.8 Y0.2 Cu1.88 Co0.12 O8
4474,[1441],Tl1Ba2Ca0.8Gd0.2Cu2O7,Tl1Ba2Ca0.8Gd0.2Cu2O7,"{'Ba': 2.0, 'Ca': 0.8, 'Cu': 2.0, 'Gd': 0.2, 'O': 7.0, 'Tl': 1.0}",93.6,93.6,0.0,1,Tl1 Ba2 Ca0.8 Gd0.2 Cu2 O7
4475,[8319],Hg1.4Tl0.6Ba2Y0.2Ca0.8Cu2O7.66,Hg1.4Tl0.6Ba2Y0.2Ca0.8Cu2O7.66,"{'Ba': 2.0, 'Ca': 0.8, 'Cu': 2.0, 'Hg': 1.4, 'O': 7.66, 'Tl': 0.6000000000000001, 'Y': 0.2}",35.3,35.3,0.0,1,Hg1.4 Tl0.6 Ba2 Y0.2 Ca0.8 Cu2 O7.66
4476,[10176],Hg1.4Tl0.6Ba2Y0.2Ca0.8Cu2O8-z,Hg1.4Tl0.6Ba2Y0.2Ca0.8Cu2O8,"{'Ba': 2.0, 'Ca': 0.8, 'Cu': 2.0, 'Hg': 1.4, 'O': 8.0, 'Tl': 0.6000000000000001, 'Y': 0.2}",42.1,42.1,0.0,1,Hg1.4 Tl0.6 Ba2 Y0.2 Ca0.8 Cu2 O8
4477,[2142],Tl1Ba2Ca0.8Nd0.2Cu2O6.86,Tl1Ba2Ca0.8Nd0.2Cu2O6.86,"{'Ba': 2.0, 'Ca': 0.8, 'Cu': 2.0, 'Nd': 0.2, 'O': 6.86, 'Tl': 1.0}",100.0,100.0,0.0,1,Tl1 Ba2 Ca0.8 Nd0.2 Cu2 O6.86
4478,[1449],Tl1Ba2Ca0.8Nd0.2Cu2O7,Tl1Ba2Ca0.8Nd0.2Cu2O7,"{'Ba': 2.0, 'Ca': 0.8, 'Cu': 2.0, 'Nd': 0.2, 'O': 7.0, 'Tl': 1.0}",96.3,96.3,0.0,1,Tl1 Ba2 Ca0.8 Nd0.2 Cu2 O7
4479,[1444],Tl1Ba2Ca0.8Y0.2Cu2O7,Tl1Ba2Ca0.8Y0.2Cu2O7,"{'Ba': 2.0, 'Ca': 0.8, 'Cu': 2.0, 'O': 7.0, 'Tl': 1.0, 'Y': 0.2}",97.6,97.6,0.0,1,Tl1 Ba2 Ca0.8 Y0.2 Cu2 O7
4480,"[2100, 3840, 10690]",Tl2Ba2Ca0.8Y0.2Cu2O8+Z,Tl2Ba2Ca0.8Y0.2Cu2O8,"{'Ba': 2.0, 'Ca': 0.8, 'Cu': 2.0, 'O': 8.0, 'Tl': 2.0, 'Y': 0.2}",85.0,78.9,4.5701932855,3,Tl2 Ba2 Ca0.8 Y0.2 Cu2 O8
4481,[11405],Cu0.5Tl0.5Ba2Ca0.8Mg1.2Cu3O10-z,Cu0.5Tl0.5Ba2Ca0.8Mg1.2Cu3O10,"{'Ba': 2.0, 'Ca': 0.8, 'Cu': 3.5, 'Mg': 1.2, 'O': 10.0, 'Tl': 0.5}",130.0,130.0,0.0,1,Cu3.5 Tl0.5 Ba2 Ca0.8 Mg1.2 O10
4482,[7365],La1.6Er0.4Ba2Ca0.8Cu4.8O11.424,La1.6Er0.4Ba2Ca0.8Cu4.8O11.424,"{'Ba': 2.0, 'Ca': 0.8, 'Cu': 4.8, 'Er': 0.4, 'La': 1.6, 'O': 11.424}",76.0,76.0,0.0,1,La1.6 Er0.4 Ba2 Ca0.8 Cu4.8 O11.424
4483,[7413],La1.6Gd0.4Ca0.8Ba2Cu4.8O10+z,La1.6Gd0.4Ca0.8Ba2Cu4.8O10,"{'Ba': 2.0, 'Ca': 0.8, 'Cu': 4.8, 'Gd': 0.4, 'La': 1.6, 'O': 10.0}",77.0,77.0,0.0,1,La1.6 Gd0.4 Ca0.8 Ba2 Cu4.8 O10
4484,[7372],La1.6Gd0.4Ba2Ca0.8Cu4.8O11.401,La1.6Gd0.4Ba2Ca0.8Cu4.8O11.401,"{'Ba': 2.0, 'Ca': 0.8, 'Cu': 4.8, 'Gd': 0.4, 'La': 1.6, 'O': 11.401}",76.0,76.0,0.0,1,La1.6 Gd0.4 Ba2 Ca0.8 Cu4.8 O11.401
4485,[7409],La1.6Nd0.4Ca0.8Ba2Cu4.8O10+z,La1.6Nd0.4Ca0.8Ba2Cu4.8O10,"{'Ba': 2.0, 'Ca': 0.8, 'Cu': 4.8, 'La': 1.6, 'Nd': 0.4, 'O': 10.0}",70.0,70.0,0.0,1,La1.6 Nd0.4 Ca0.8 Ba2 Cu4.8 O10
4486,[10949],La1.6Pr0.4Ca0.8Ba2Cu4.8O11.1064,La1.6Pr0.4Ca0.8Ba2Cu4.8O11.1064,"{'Ba': 2.0, 'Ca': 0.8, 'Cu': 4.8, 'La': 1.6, 'O': 11.1064, 'Pr': 0.4}",54.0,54.0,0.0,1,La1.6 Pr0.4 Ca0.8 Ba2 Cu4.8 O11.1064
4487,[10687],Tl2Ba2Ca0.85Y0.15Cu1.96Co0.04O8+z,Tl2Ba2Ca0.85Y0.15Cu1.96Co0.04O8,"{'Ba': 2.0, 'Ca': 0.85, 'Co': 0.04, 'Cu': 1.96, 'O': 8.0, 'Tl': 2.0, 'Y': 0.15}",86.7,86.7,0.0,1,Tl2 Ba2 Ca0.85 Y0.15 Cu1.96 Co0.04 O8
4488,[10688],Tl2Ba2Ca0.85Y0.15Cu1.92Co0.08O8+z,Tl2Ba2Ca0.85Y0.15Cu1.92Co0.08O8,"{'Ba': 2.0, 'Ca': 0.85, 'Co': 0.08, 'Cu': 1.92, 'O': 8.0, 'Tl': 2.0, 'Y': 0.15}",76.2,76.2,0.0,1,Tl2 Ba2 Ca0.85 Y0.15 Cu1.92 Co0.08 O8
4489,[10689],Tl2Ba2Ca0.85Y0.15Cu1.88Co0.12O8+z,Tl2Ba2Ca0.85Y0.15Cu1.88Co0.12O8,"{'Ba': 2.0, 'Ca': 0.85, 'Co': 0.12, 'Cu': 1.88, 'O': 8.0, 'Tl': 2.0, 'Y': 0.15}",61.6,61.6,0.0,1,Tl2 Ba2 Ca0.85 Y0.15 Cu1.88 Co0.12 O8
4490,[10686],Tl2Ba2Ca0.85Y0.15Cu2O8+z,Tl2Ba2Ca0.85Y0.15Cu2O8,"{'Ba': 2.0, 'Ca': 0.85, 'Cu': 2.0, 'O': 8.0, 'Tl': 2.0, 'Y': 0.15}",102.8,102.8,0.0,1,Tl2 Ba2 Ca0.85 Y0.15 Cu2 O8
4491,[3671],Tl1.8Ba2Ca0.85Cu2.2O8,Tl1.8Ba2Ca0.85Cu2.2O8,"{'Ba': 2.0, 'Ca': 0.85, 'Cu': 2.2, 'O': 8.0, 'Tl': 1.8}",104.0,104.0,0.0,1,Tl1.8 Ba2 Ca0.85 Cu2.2 O8
4492,"[3663, 3664, 9467]",Hg0.5Tl0.5Ba2Ca0.86Sr0.14Cu2O6+z,Hg0.5Tl0.5Ba2Ca0.86Sr0.14Cu2O6,"{'Ba': 2.0, 'Ca': 0.86, 'Cu': 2.0, 'Hg': 0.5, 'O': 6.0, 'Sr': 0.14, 'Tl': 0.5}",122.0,114.6666666667,10.3708994574,3,Hg0.5 Tl0.5 Ba2 Ca0.86 Sr0.14 Cu2 O6
4493,"[8612, 9466]",Hg1Ba2Ca0.86Sr0.14Cu2O6-Z,Hg1Ba2Ca0.86Sr0.14Cu2O6,"{'Ba': 2.0, 'Ca': 0.86, 'Cu': 2.0, 'Hg': 1.0, 'O': 6.0, 'Sr': 0.14}",120.0,118.0,2.0,2,Hg1 Ba2 Ca0.86 Sr0.14 Cu2 O6
4494,[11860],Tl2Ba2Ca0.9Ce0.1Cu1.98Fe0.02F0.2O7.9,Tl2Ba2Ca0.9Ce0.1Cu1.98Fe0.02F0.2O7.9,"{'Ba': 2.0, 'Ca': 0.9, 'Ce': 0.1, 'Cu': 1.98, 'F': 0.2, 'Fe': 0.02, 'O': 7.9, 'Tl': 2.0}",103.0,103.0,0.0,1,Tl2 Ba2 Ca0.9 Ce0.1 Cu1.98 Fe0.02 F0.2 O7.9
4495,[11859],Tl2Ba2Ca0.9Ce0.1Cu1.98Fe0.02O8,Tl2Ba2Ca0.9Ce0.1Cu1.98Fe0.02O8,"{'Ba': 2.0, 'Ca': 0.9, 'Ce': 0.1, 'Cu': 1.98, 'Fe': 0.02, 'O': 8.0, 'Tl': 2.0}",99.0,99.0,0.0,1,Tl2 Ba2 Ca0.9 Ce0.1 Cu1.98 Fe0.02 O8
4496,[11861],Tl2Ba2Ca0.9Ce0.1Cu2O8,Tl2Ba2Ca0.9Ce0.1Cu2O8,"{'Ba': 2.0, 'Ca': 0.9, 'Ce': 0.1, 'Cu': 2.0, 'O': 8.0, 'Tl': 2.0}",100.0,100.0,0.0,1,Tl2 Ba2 Ca0.9 Ce0.1 Cu2 O8
4497,[10683],Tl2Ba2Ca0.9Y0.1Cu1.96Co0.04O8+z,Tl2Ba2Ca0.9Y0.1Cu1.96Co0.04O8,"{'Ba': 2.0, 'Ca': 0.9, 'Co': 0.04, 'Cu': 1.96, 'O': 8.0, 'Tl': 2.0, 'Y': 0.1}",97.9,97.9,0.0,1,Tl2 Ba2 Ca0.9 Y0.1 Cu1.96 Co0.04 O8
4498,[10684],Tl2Ba2Ca0.9Y0.1Cu1.92Co0.08O8+z,Tl2Ba2Ca0.9Y0.1Cu1.92Co0.08O8,"{'Ba': 2.0, 'Ca': 0.9, 'Co': 0.08, 'Cu': 1.92, 'O': 8.0, 'Tl': 2.0, 'Y': 0.1}",88.5,88.5,0.0,1,Tl2 Ba2 Ca0.9 Y0.1 Cu1.92 Co0.08 O8
4499,[10685],Tl2Ba2Ca0.9Y0.1Cu1.88Co0.12O8+z,Tl2Ba2Ca0.9Y0.1Cu1.88Co0.12O8,"{'Ba': 2.0, 'Ca': 0.9, 'Co': 0.12, 'Cu': 1.88, 'O': 8.0, 'Tl': 2.0, 'Y': 0.1}",78.0,78.0,0.0,1,Tl2 Ba2 Ca0.9 Y0.1 Cu1.88 Co0.12 O8
4500,[1440],Tl1Ba2Ca0.9Gd0.1Cu2O7,Tl1Ba2Ca0.9Gd0.1Cu2O7,"{'Ba': 2.0, 'Ca': 0.9, 'Cu': 2.0, 'Gd': 0.1, 'O': 7.0, 'Tl': 1.0}",91.8,91.8,0.0,1,Tl1 Ba2 Ca0.9 Gd0.1 Cu2 O7
4501,[1448],Tl1Ba2Ca0.9Nd0.1Cu2O7,Tl1Ba2Ca0.9Nd0.1Cu2O7,"{'Ba': 2.0, 'Ca': 0.9, 'Cu': 2.0, 'Nd': 0.1, 'O': 7.0, 'Tl': 1.0}",90.8,90.8,0.0,1,Tl1 Ba2 Ca0.9 Nd0.1 Cu2 O7
4502,[1443],Tl1Ba2Ca0.9Y0.1Cu2O7,Tl1Ba2Ca0.9Y0.1Cu2O7,"{'Ba': 2.0, 'Ca': 0.9, 'Cu': 2.0, 'O': 7.0, 'Tl': 1.0, 'Y': 0.1}",86.1,86.1,0.0,1,Tl1 Ba2 Ca0.9 Y0.1 Cu2 O7
4503,"[3839, 10682]",Tl2Ba2Ca0.9Y0.1Cu2O8+z,Tl2Ba2Ca0.9Y0.1Cu2O8,"{'Ba': 2.0, 'Ca': 0.9, 'Cu': 2.0, 'O': 8.0, 'Tl': 2.0, 'Y': 0.1}",105.8,96.9,8.9,2,Tl2 Ba2 Ca0.9 Y0.1 Cu2 O8
4504,[7366],La1.55Er0.45Ba2Ca0.9Cu4.9O11.664,La1.55Er0.45Ba2Ca0.9Cu4.9O11.664,"{'Ba': 2.0, 'Ca': 0.9, 'Cu': 4.9, 'Er': 0.45, 'La': 1.55, 'O': 11.664}",76.0,76.0,0.0,1,La1.55 Er0.45 Ba2 Ca0.9 Cu4.9 O11.664