,sc_id,supercon_formula,cleaned_formula,material_dict,highest_Tc,average_Tc,std_Tc,entry_count,composition
5222,"[89, 294, 1024, 1330, 2006, 2798, 3388, 3771]",Y1Ba2Cu2.88Fe0.12O7,Y1Ba2Cu2.88Fe0.12O7,"{'Ba': 2.0, 'Cu': 2.88, 'Fe': 0.12, 'O': 7.0, 'Y': 1.0}",79.0,70.7,9.1491802912,8,Y1 Ba2 Cu2.88 Fe0.12 O7
5223,"[757, 842]",Y1Ba2Cu2.88Ga0.12O7-Z,Y1Ba2Cu2.88Ga0.12O7,"{'Ba': 2.0, 'Cu': 2.88, 'Ga': 0.12, 'O': 7.0, 'Y': 1.0}",79.89,74.045,5.845,2,Y1 Ba2 Cu2.88 Ga0.12 O7
5224,"[1000, 1628, 1830, 8038, 8041]",Y1Ba2Cu2.88Ni0.12O7,Y1Ba2Cu2.88Ni0.12O7,"{'Ba': 2.0, 'Cu': 2.88, 'Ni': 0.12, 'O': 7.0, 'Y': 1.0}",78.0,68.32,12.9388407518,5,Y1 Ba2 Cu2.88 Ni0.12 O7
5225,[3779],Y1Ba2Cu2.88Ni0.18O7,Y1Ba2Cu2.88Ni0.18O7,"{'Ba': 2.0, 'Cu': 2.88, 'Ni': 0.18, 'O': 7.0, 'Y': 1.0}",77.2,77.2,0.0,1,Y1 Ba2 Cu2.88 Ni0.18 O7
5226,[4318],Y1Ba2Cu2.88Ti0.12O6.88,Y1Ba2Cu2.88Ti0.12O6.88,"{'Ba': 2.0, 'Cu': 2.88, 'O': 6.88, 'Ti': 0.12, 'Y': 1.0}",68.4,68.4,0.0,1,Y1 Ba2 Cu2.88 Ti0.12 O6.88
5227,[2260],Y1Ba2Cu2.88Zn0.12O6.92,Y1Ba2Cu2.88Zn0.12O6.92,"{'Ba': 2.0, 'Cu': 2.88, 'O': 6.92, 'Y': 1.0, 'Zn': 0.12}",53.0,53.0,0.0,1,Y1 Ba2 Cu2.88 Zn0.12 O6.92
5228,[11155],Y1Ba2Cu2.88Zn0.12O6.95,Y1Ba2Cu2.88Zn0.12O6.95,"{'Ba': 2.0, 'Cu': 2.88, 'O': 6.95, 'Y': 1.0, 'Zn': 0.12}",64.0,64.0,0.0,1,Y1 Ba2 Cu2.88 Zn0.12 O6.95
5229,[20040],Y1Ba2Cu2.88P0.12O7-z,Y1Ba2Cu2.88P0.12O7,"{'Ba': 2.0, 'Cu': 2.88, 'O': 7.0, 'P': 0.12, 'Y': 1.0}",75.985,75.985,0.0,1,Y1 Ba2 Cu2.88 P0.12 O7
5230,"[856, 1626, 3777, 5508, 8098, 8219]",Y1Ba2Cu2.88Zn0.12O7,Y1Ba2Cu2.88Zn0.12O7,"{'Ba': 2.0, 'Cu': 2.88, 'O': 7.0, 'Y': 1.0, 'Zn': 0.12}",60.0,51.4033333333,6.4060431538,6,Y1 Ba2 Cu2.88 Zn0.12 O7
5231,[3916],Y1Ba2Cu2.88Zr0.12O7-z,Y1Ba2Cu2.88Zr0.12O7,"{'Ba': 2.0, 'Cu': 2.88, 'O': 7.0, 'Y': 1.0, 'Zr': 0.12}",84.0,84.0,0.0,1,Y1 Ba2 Cu2.88 Zr0.12 O7
5232,[859],Y1Ba2Cu2.885Zn0.195O7,Y1Ba2Cu2.885Zn0.195O7,"{'Ba': 2.0, 'Cu': 2.885, 'O': 7.0, 'Y': 1.0, 'Zn': 0.195}",32.4,32.4,0.0,1,Y1 Ba2 Cu2.885 Zn0.195 O7
5233,[3468],Y1Ba2Cu2.892Zn0.108O7-z,Y1Ba2Cu2.892Zn0.108O7,"{'Ba': 2.0, 'Cu': 2.892, 'O': 7.0, 'Y': 1.0, 'Zn': 0.108}",48.0,48.0,0.0,1,Y1 Ba2 Cu2.892 Zn0.108 O7
5234,"[182, 794, 1162, 4907, 8044]",Y1Ba2Cu2.895Fe0.105O7-Z,Y1Ba2Cu2.895Fe0.105O7,"{'Ba': 2.0, 'Cu': 2.895, 'Fe': 0.105, 'O': 7.0, 'Y': 1.0}",81.8,68.56,7.3194535315,5,Y1 Ba2 Cu2.895 Fe0.105 O7
5235,"[9115, 10042]",Y1Ba2Cu2.895Mn0.105O7-Z,Y1Ba2Cu2.895Mn0.105O7,"{'Ba': 2.0, 'Cu': 2.895, 'Mn': 0.105, 'O': 7.0, 'Y': 1.0}",90.53,86.765,3.765,2,Y1 Ba2 Cu2.895 Mn0.105 O7
5236,[8486],Dy1Ba2Cu2.9Fe0.1O6.84,Dy1Ba2Cu2.9Fe0.1O6.84,"{'Ba': 2.0, 'Cu': 2.9, 'Dy': 1.0, 'Fe': 0.1, 'O': 6.84}",70.0,70.0,0.0,1,Dy1 Ba2 Cu2.9 Fe0.1 O6.84
5237,[7735],Dy1Ba2Cu2.9Ga0.1O6.7,Dy1Ba2Cu2.9Ga0.1O6.7,"{'Ba': 2.0, 'Cu': 2.9, 'Dy': 1.0, 'Ga': 0.1, 'O': 6.7}",68.0,68.0,0.0,1,Dy1 Ba2 Cu2.9 Ga0.1 O6.7
5238,[8501],Dy1Ba2Cu2.9Ni0.1O6.74,Dy1Ba2Cu2.9Ni0.1O6.74,"{'Ba': 2.0, 'Cu': 2.9, 'Dy': 1.0, 'Ni': 0.1, 'O': 6.74}",67.0,67.0,0.0,1,Dy1 Ba2 Cu2.9 Ni0.1 O6.74
5239,[8515],Dy1Ba2Cu2.9Zn0.1O6.96,Dy1Ba2Cu2.9Zn0.1O6.96,"{'Ba': 2.0, 'Cu': 2.9, 'Dy': 1.0, 'O': 6.96, 'Zn': 0.1}",44.0,44.0,0.0,1,Dy1 Ba2 Cu2.9 Zn0.1 O6.96
5240,[8438],Dy1Ba2Cu2.9Zn0.1O7-y,Dy1Ba2Cu2.9Zn0.1O7,"{'Ba': 2.0, 'Cu': 2.9, 'Dy': 1.0, 'O': 7.0, 'Zn': 0.1}",56.3,56.3,0.0,1,Dy1 Ba2 Cu2.9 Zn0.1 O7
5241,[7723],Er1Ba2Cu2.9Ga0.1O6.78,Er1Ba2Cu2.9Ga0.1O6.78,"{'Ba': 2.0, 'Cu': 2.9, 'Er': 1.0, 'Ga': 0.1, 'O': 6.78}",86.0,86.0,0.0,1,Er1 Ba2 Cu2.9 Ga0.1 O6.78
5242,[8422],Er1Ba2Cu2.9Zn0.1O7-y,Er1Ba2Cu2.9Zn0.1O7,"{'Ba': 2.0, 'Cu': 2.9, 'Er': 1.0, 'O': 7.0, 'Zn': 0.1}",60.4,60.4,0.0,1,Er1 Ba2 Cu2.9 Zn0.1 O7
5243,[7743],Eu1Ba2Cu2.9Ga0.1O6.74,Eu1Ba2Cu2.9Ga0.1O6.74,"{'Ba': 2.0, 'Cu': 2.9, 'Eu': 1.0, 'Ga': 0.1, 'O': 6.74}",52.0,52.0,0.0,1,Eu1 Ba2 Cu2.9 Ga0.1 O6.74
5244,[8454],Eu1Ba2Cu2.9Zn0.1O7-y,Eu1Ba2Cu2.9Zn0.1O7,"{'Ba': 2.0, 'Cu': 2.9, 'Eu': 1.0, 'O': 7.0, 'Zn': 0.1}",47.4,47.4,0.0,1,Eu1 Ba2 Cu2.9 Zn0.1 O7
5245,[2510],Gd1Ba2Cu2.9Fe0.1O7-Z,Gd1Ba2Cu2.9Fe0.1O7,"{'Ba': 2.0, 'Cu': 2.9, 'Fe': 0.1, 'Gd': 1.0, 'O': 7.0}",75.0,75.0,0.0,1,Gd1 Ba2 Cu2.9 Fe0.1 O7
5246,[3710],Y1Ba2Cu2.9Fe0.1O6.62,Y1Ba2Cu2.9Fe0.1O6.62,"{'Ba': 2.0, 'Cu': 2.9, 'Fe': 0.1, 'O': 6.62, 'Y': 1.0}",4.2,4.2,0.0,1,Y1 Ba2 Cu2.9 Fe0.1 O6.62
5247,[2028],Y1Ba2Cu2.9Fe0.1O6.64,Y1Ba2Cu2.9Fe0.1O6.64,"{'Ba': 2.0, 'Cu': 2.9, 'Fe': 0.1, 'O': 6.64, 'Y': 1.0}",20.5,20.5,0.0,1,Y1 Ba2 Cu2.9 Fe0.1 O6.64
5248,[2029],Y1Ba2Cu2.9Fe0.1O6.7,Y1Ba2Cu2.9Fe0.1O6.7,"{'Ba': 2.0, 'Cu': 2.9, 'Fe': 0.1, 'O': 6.7, 'Y': 1.0}",28.5,28.5,0.0,1,Y1 Ba2 Cu2.9 Fe0.1 O6.7
5249,[3709],Y1Ba2Cu2.9Fe0.1O6.72,Y1Ba2Cu2.9Fe0.1O6.72,"{'Ba': 2.0, 'Cu': 2.9, 'Fe': 0.1, 'O': 6.72, 'Y': 1.0}",33.0,33.0,0.0,1,Y1 Ba2 Cu2.9 Fe0.1 O6.72
5250,[2030],Y1Ba2Cu2.9Fe0.1O6.75,Y1Ba2Cu2.9Fe0.1O6.75,"{'Ba': 2.0, 'Cu': 2.9, 'Fe': 0.1, 'O': 6.75, 'Y': 1.0}",37.4,37.4,0.0,1,Y1 Ba2 Cu2.9 Fe0.1 O6.75
5251,"[2031, 3708]",Y1Ba2Cu2.9Fe0.1O6.8,Y1Ba2Cu2.9Fe0.1O6.8,"{'Ba': 2.0, 'Cu': 2.9, 'Fe': 0.1, 'O': 6.8, 'Y': 1.0}",53.1,50.55,2.55,2,Y1 Ba2 Cu2.9 Fe0.1 O6.8
5252,[2032],Y1Ba2Cu2.9Fe0.1O6.85,Y1Ba2Cu2.9Fe0.1O6.85,"{'Ba': 2.0, 'Cu': 2.9, 'Fe': 0.1, 'O': 6.85, 'Y': 1.0}",63.8,63.8,0.0,1,Y1 Ba2 Cu2.9 Fe0.1 O6.85
5253,[8478],Sm1Ba2Cu2.9Fe0.1O6.89,Sm1Ba2Cu2.9Fe0.1O6.89,"{'Ba': 2.0, 'Cu': 2.9, 'Fe': 0.1, 'O': 6.89, 'Sm': 1.0}",66.0,66.0,0.0,1,Sm1 Ba2 Cu2.9 Fe0.1 O6.89
5254,[2033],Y1Ba2Cu2.9Fe0.1O6.9,Y1Ba2Cu2.9Fe0.1O6.9,"{'Ba': 2.0, 'Cu': 2.9, 'Fe': 0.1, 'O': 6.9, 'Y': 1.0}",74.9,74.9,0.0,1,Y1 Ba2 Cu2.9 Fe0.1 O6.9
5255,"[224, 454]",Y1Ba2Cu2.9Fe0.1O6.92,Y1Ba2Cu2.9Fe0.1O6.92,"{'Ba': 2.0, 'Cu': 2.9, 'Fe': 0.1, 'O': 6.92, 'Y': 1.0}",76.0,62.0,14.0,2,Y1 Ba2 Cu2.9 Fe0.1 O6.92
5256,[8258],Y1Ba2Cu2.9Fe0.1O6.929,Y1Ba2Cu2.9Fe0.1O6.929,"{'Ba': 2.0, 'Cu': 2.9, 'Fe': 0.1, 'O': 6.929, 'Y': 1.0}",71.0,71.0,0.0,1,Y1 Ba2 Cu2.9 Fe0.1 O6.929
5257,[3707],Y1Ba2Cu2.9Fe0.1O7,Y1Ba2Cu2.9Fe0.1O7,"{'Ba': 2.0, 'Cu': 2.9, 'Fe': 0.1, 'O': 7.0, 'Y': 1.0}",80.5,80.5,0.0,1,Y1 Ba2 Cu2.9 Fe0.1 O7
5258,[8263],Y1Ba2Cu2.9Fe0.1O7.293,Y1Ba2Cu2.9Fe0.1O7.293,"{'Ba': 2.0, 'Cu': 2.9, 'Fe': 0.1, 'O': 7.293, 'Y': 1.0}",87.0,87.0,0.0,1,Y1 Ba2 Cu2.9 Fe0.1 O7.293
5259,[7739],Gd1Ba2Cu2.9Ga0.1O7-y,Gd1Ba2Cu2.9Ga0.1O7,"{'Ba': 2.0, 'Cu': 2.9, 'Ga': 0.1, 'Gd': 1.0, 'O': 7.0}",62.0,62.0,0.0,1,Gd1 Ba2 Cu2.9 Ga0.1 O7
5260,[8033],Nb1Ba2Cu2.9Ga0.1O7-y,Nb1Ba2Cu2.9Ga0.1O7,"{'Ba': 2.0, 'Cu': 2.9, 'Ga': 0.1, 'Nb': 1.0, 'O': 7.0}",42.6,42.6,0.0,1,Nb1 Ba2 Cu2.9 Ga0.1 O7
5261,[7719],Nd1Ba2Cu2.9Ga0.1O6.61,Nd1Ba2Cu2.9Ga0.1O6.61,"{'Ba': 2.0, 'Cu': 2.9, 'Ga': 0.1, 'Nd': 1.0, 'O': 6.61}",38.0,38.0,0.0,1,Nd1 Ba2 Cu2.9 Ga0.1 O6.61
5262,[7729],Y1Ba2Cu2.9Ga0.1O6.8,Y1Ba2Cu2.9Ga0.1O6.8,"{'Ba': 2.0, 'Cu': 2.9, 'Ga': 0.1, 'O': 6.8, 'Y': 1.0}",81.0,81.0,0.0,1,Y1 Ba2 Cu2.9 Ga0.1 O6.8
5263,[7713],Yb1Ba2Cu2.9Ga0.1O7-y,Yb1Ba2Cu2.9Ga0.1O7,"{'Ba': 2.0, 'Cu': 2.9, 'Ga': 0.1, 'O': 7.0, 'Yb': 1.0}",90.0,90.0,0.0,1,Yb1 Ba2 Cu2.9 Ga0.1 O7
5264,[11215],Y1Ba2Cu2.9Gd0.1O7-z,Y1Ba2Cu2.9Gd0.1O7,"{'Ba': 2.0, 'Cu': 2.9, 'Gd': 0.1, 'O': 7.0, 'Y': 1.0}",33.7,33.7,0.0,1,Y1 Ba2 Cu2.9 Gd0.1 O7
5265,[2507],Gd1Ba2Cu2.9Ni0.1O7-Z,Gd1Ba2Cu2.9Ni0.1O7,"{'Ba': 2.0, 'Cu': 2.9, 'Gd': 1.0, 'Ni': 0.1, 'O': 7.0}",77.7,77.7,0.0,1,Gd1 Ba2 Cu2.9 Ni0.1 O7
5266,[8446],Gd1Ba2Cu2.9Zn0.1O7-y,Gd1Ba2Cu2.9Zn0.1O7,"{'Ba': 2.0, 'Cu': 2.9, 'Gd': 1.0, 'O': 7.0, 'Zn': 0.1}",49.2,49.2,0.0,1,Gd1 Ba2 Cu2.9 Zn0.1 O7
5267,[425],La1Ba2Cu2.9O6.8,La1Ba2Cu2.9O6.8,"{'Ba': 2.0, 'Cu': 2.9, 'La': 1.0, 'O': 6.8}",45.0,45.0,0.0,1,La1 Ba2 Cu2.9 O6.8
5268,[704],La1Ba2Cu2.9O6.82,La1Ba2Cu2.9O6.82,"{'Ba': 2.0, 'Cu': 2.9, 'La': 1.0, 'O': 6.82}",45.0,45.0,0.0,1,La1 Ba2 Cu2.9 O6.82
5269,[8470],Nd1Ba2Cu2.9Zn0.1O7-y,Nd1Ba2Cu2.9Zn0.1O7,"{'Ba': 2.0, 'Cu': 2.9, 'Nd': 1.0, 'O': 7.0, 'Zn': 0.1}",25.0,25.0,0.0,1,Nd1 Ba2 Cu2.9 Zn0.1 O7
5270,[3717],Y1Ba2Cu2.9Ni0.1O6.56,Y1Ba2Cu2.9Ni0.1O6.56,"{'Ba': 2.0, 'Cu': 2.9, 'Ni': 0.1, 'O': 6.5600000000000005, 'Y': 1.0}",4.3,4.3,0.0,1,Y1 Ba2 Cu2.9 Ni0.1 O6.56
5271,[3716],Y1Ba2Cu2.9Ni0.1O6.61,Y1Ba2Cu2.9Ni0.1O6.61,"{'Ba': 2.0, 'Cu': 2.9, 'Ni': 0.1, 'O': 6.61, 'Y': 1.0}",20.5,20.5,0.0,1,Y1 Ba2 Cu2.9 Ni0.1 O6.61
5272,[3715],Y1Ba2Cu2.9Ni0.1O6.71,Y1Ba2Cu2.9Ni0.1O6.71,"{'Ba': 2.0, 'Cu': 2.9, 'Ni': 0.1, 'O': 6.71, 'Y': 1.0}",29.0,29.0,0.0,1,Y1 Ba2 Cu2.9 Ni0.1 O6.71
5273,[3714],Y1Ba2Cu2.9Ni0.1O6.77,Y1Ba2Cu2.9Ni0.1O6.77,"{'Ba': 2.0, 'Cu': 2.9, 'Ni': 0.1, 'O': 6.77, 'Y': 1.0}",44.0,44.0,0.0,1,Y1 Ba2 Cu2.9 Ni0.1 O6.77
5274,[3713],Y1Ba2Cu2.9Ni0.1O6.85,Y1Ba2Cu2.9Ni0.1O6.85,"{'Ba': 2.0, 'Cu': 2.9, 'Ni': 0.1, 'O': 6.85, 'Y': 1.0}",54.5,54.5,0.0,1,Y1 Ba2 Cu2.9 Ni0.1 O6.85
5275,[232],Y1Ba2Cu2.9Ni0.1O6.87,Y1Ba2Cu2.9Ni0.1O6.87,"{'Ba': 2.0, 'Cu': 2.9, 'Ni': 0.1, 'O': 6.87, 'Y': 1.0}",55.0,55.0,0.0,1,Y1 Ba2 Cu2.9 Ni0.1 O6.87
5276,[3712],Y1Ba2Cu2.9Ni0.1O6.88,Y1Ba2Cu2.9Ni0.1O6.88,"{'Ba': 2.0, 'Cu': 2.9, 'Ni': 0.1, 'O': 6.88, 'Y': 1.0}",69.5,69.5,0.0,1,Y1 Ba2 Cu2.9 Ni0.1 O6.88
5277,"[9584, 9591]",Y1Ba2Cu2.9Ni0.1O6.92,Y1Ba2Cu2.9Ni0.1O6.92,"{'Ba': 2.0, 'Cu': 2.9, 'Ni': 0.1, 'O': 6.92, 'Y': 1.0}",81.0,80.5,0.5,2,Y1 Ba2 Cu2.9 Ni0.1 O6.92
5278,"[9588, 9590]",Y1Ba2Cu2.9Ni0.1O6.93,Y1Ba2Cu2.9Ni0.1O6.93,"{'Ba': 2.0, 'Cu': 2.9, 'Ni': 0.1, 'O': 6.93, 'Y': 1.0}",75.0,72.5,2.5,2,Y1 Ba2 Cu2.9 Ni0.1 O6.93
5279,[9589],Y1Ba2Cu2.9Ni0.1O6.95,Y1Ba2Cu2.9Ni0.1O6.95,"{'Ba': 2.0, 'Cu': 2.9, 'Ni': 0.1, 'O': 6.95, 'Y': 1.0}",70.0,70.0,0.0,1,Y1 Ba2 Cu2.9 Ni0.1 O6.95
5280,[8493],Sm1Ba2Cu2.9Ni0.1O7-z,Sm1Ba2Cu2.9Ni0.1O7,"{'Ba': 2.0, 'Cu': 2.9, 'Ni': 0.1, 'O': 7.0, 'Sm': 1.0}",72.0,72.0,0.0,1,Sm1 Ba2 Cu2.9 Ni0.1 O7
5281,"[899, 2968, 3711]",Y1Ba2Cu2.9Ni0.1O7,Y1Ba2Cu2.9Ni0.1O7,"{'Ba': 2.0, 'Cu': 2.9, 'Ni': 0.1, 'O': 7.0, 'Y': 1.0}",83.0,81.6,1.1045361017,3,Y1 Ba2 Cu2.9 Ni0.1 O7
5282,[240],Y1Ba2Cu2.9Zn0.1O6.81,Y1Ba2Cu2.9Zn0.1O6.81,"{'Ba': 2.0, 'Cu': 2.9, 'O': 6.8100000000000005, 'Y': 1.0, 'Zn': 0.1}",55.0,55.0,0.0,1,Y1 Ba2 Cu2.9 Zn0.1 O6.81
5283,[8510],Sm1Ba2Cu2.9Zn0.1O6.83,Sm1Ba2Cu2.9Zn0.1O6.83,"{'Ba': 2.0, 'Cu': 2.9, 'O': 6.83, 'Sm': 1.0, 'Zn': 0.1}",29.0,29.0,0.0,1,Sm1 Ba2 Cu2.9 Zn0.1 O6.83
5284,[996],Y1Ba2Cu2.9Zn0.1O6.85,Y1Ba2Cu2.9Zn0.1O6.85,"{'Ba': 2.0, 'Cu': 2.9, 'O': 6.85, 'Y': 1.0, 'Zn': 0.1}",50.08,50.08,0.0,1,Y1 Ba2 Cu2.9 Zn0.1 O6.85
5285,[3721],Y1Ba2Cu2.9Zn0.1O6.88,Y1Ba2Cu2.9Zn0.1O6.88,"{'Ba': 2.0, 'Cu': 2.9, 'O': 6.88, 'Y': 1.0, 'Zn': 0.1}",4.3,4.3,0.0,1,Y1 Ba2 Cu2.9 Zn0.1 O6.88
5286,[3720],Y1Ba2Cu2.9Zn0.1O6.93,Y1Ba2Cu2.9Zn0.1O6.93,"{'Ba': 2.0, 'Cu': 2.9, 'O': 6.93, 'Y': 1.0, 'Zn': 0.1}",23.0,23.0,0.0,1,Y1 Ba2 Cu2.9 Zn0.1 O6.93
5287,"[707, 986]",Y1Ba2Cu2.9Zn0.1O6.94,Y1Ba2Cu2.9Zn0.1O6.94,"{'Ba': 2.0, 'Cu': 2.9, 'O': 6.94, 'Y': 1.0, 'Zn': 0.1}",57.0,56.95,0.05,2,Y1 Ba2 Cu2.9 Zn0.1 O6.94
5288,[3719],Y1Ba2Cu2.9Zn0.1O6.99,Y1Ba2Cu2.9Zn0.1O6.99,"{'Ba': 2.0, 'Cu': 2.9, 'O': 6.99, 'Y': 1.0, 'Zn': 0.1}",43.5,43.5,0.0,1,Y1 Ba2 Cu2.9 Zn0.1 O6.99
5289,[9958],Y1Re0.1Ba2Cu2.9O7,Y1Re0.1Ba2Cu2.9O7,"{'Ba': 2.0, 'Cu': 2.9, 'O': 7.0, 'Re': 0.1, 'Y': 1.0}",91.5,91.5,0.0,1,Y1 Re0.1 Ba2 Cu2.9 O7
5290,[8462],Sm1Ba2Cu2.9Zn0.1O7-y,Sm1Ba2Cu2.9Zn0.1O7,"{'Ba': 2.0, 'Cu': 2.9, 'O': 7.0, 'Sm': 1.0, 'Zn': 0.1}",43.6,43.6,0.0,1,Sm1 Ba2 Cu2.9 Zn0.1 O7
5291,"[3718, 8430]",Y1Ba2Cu2.9Zn0.1O7,Y1Ba2Cu2.9Zn0.1O7,"{'Ba': 2.0, 'Cu': 2.9, 'O': 7.0, 'Y': 1.0, 'Zn': 0.1}",60.1,55.8,4.3,2,Y1 Ba2 Cu2.9 Zn0.1 O7
5292,[9962],Y1Re0.1Ba2Cu2.9O7.08,Y1Re0.1Ba2Cu2.9O7.08,"{'Ba': 2.0, 'Cu': 2.9, 'O': 7.08, 'Re': 0.1, 'Y': 1.0}",90.0,90.0,0.0,1,Y1 Re0.1 Ba2 Cu2.9 O7.08
5293,[9966],Y1Re0.1Ba2Cu2.9O7.09,Y1Re0.1Ba2Cu2.9O7.09,"{'Ba': 2.0, 'Cu': 2.9, 'O': 7.09, 'Re': 0.1, 'Y': 1.0}",91.0,91.0,0.0,1,Y1 Re0.1 Ba2 Cu2.9 O7.09
5294,[709],Y1Ba2Cu2.9Sn0.1O7.28,Y1Ba2Cu2.9Sn0.1O7.28,"{'Ba': 2.0, 'Cu': 2.9, 'O': 7.28, 'Sn': 0.1, 'Y': 1.0}",90.0,90.0,0.0,1,Y1 Ba2 Cu2.9 Sn0.1 O7.28
5295,"[745, 770]",Y1Ba2Cu2.901Fe0.099O7-Z,Y1Ba2Cu2.901Fe0.099O7,"{'Ba': 2.0, 'Cu': 2.901, 'Fe': 0.099, 'O': 7.0, 'Y': 1.0}",62.0,62.0,0.0,2,Y1 Ba2 Cu2.901 Fe0.099 O7
5296,[800],Y1Ba2Cu2.901Zn0.099O7-Z,Y1Ba2Cu2.901Zn0.099O7,"{'Ba': 2.0, 'Cu': 2.901, 'O': 7.0, 'Y': 1.0, 'Zn': 0.099}",37.5,37.5,0.0,1,Y1 Ba2 Cu2.901 Zn0.099 O7
5297,[167],Y1Ba2Cu2.902Pt0.098O6.4,Y1Ba2Cu2.902Pt0.098O6.4,"{'Ba': 2.0, 'Cu': 2.902, 'O': 6.4, 'Pt': 0.098, 'Y': 1.0}",81.0,81.0,0.0,1,Y1 Ba2 Cu2.902 Pt0.098 O6.4
5298,[3467],Y1Ba2Cu2.909Zn0.091O7-z,Y1Ba2Cu2.909Zn0.091O7,"{'Ba': 2.0, 'Cu': 2.909, 'O': 7.0, 'Y': 1.0, 'Zn': 0.091}",55.0,55.0,0.0,1,Y1 Ba2 Cu2.909 Zn0.091 O7
5299,[9629],Er1Ba2Cu2.91Zn0.06Fe0.03O6.93,Er1Ba2Cu2.91Zn0.06Fe0.03O6.93,"{'Ba': 2.0, 'Cu': 2.91, 'Er': 1.0, 'Fe': 0.03, 'O': 6.93, 'Zn': 0.06}",63.0,63.0,0.0,1,Er1 Ba2 Cu2.91 Zn0.06 Fe0.03 O6.93
5300,[9633],Er1Ba2Cu2.91Fe0.09O6.96,Er1Ba2Cu2.91Fe0.09O6.96,"{'Ba': 2.0, 'Cu': 2.91, 'Er': 1.0, 'Fe': 0.09, 'O': 6.96}",83.0,83.0,0.0,1,Er1 Ba2 Cu2.91 Fe0.09 O6.96
5301,[617],Gd1Ba2Cu2.91Fe0.09O6.94,Gd1Ba2Cu2.91Fe0.09O6.94,"{'Ba': 2.0, 'Cu': 2.91, 'Fe': 0.09, 'Gd': 1.0, 'O': 6.94}",75.0,75.0,0.0,1,Gd1 Ba2 Cu2.91 Fe0.09 O6.94
5302,[2157],Y1Ba2Cu2.91Fe0.09O6.83,Y1Ba2Cu2.91Fe0.09O6.83,"{'Ba': 2.0, 'Cu': 2.91, 'Fe': 0.09, 'O': 6.83, 'Y': 1.0}",60.0,60.0,0.0,1,Y1 Ba2 Cu2.91 Fe0.09 O6.83
5303,[1350],Y1Ba2Cu2.91Fe0.09O7-Z,Y1Ba2Cu2.91Fe0.09O7,"{'Ba': 2.0, 'Cu': 2.91, 'Fe': 0.09, 'O': 7.0, 'Y': 1.0}",82.8,82.8,0.0,1,Y1 Ba2 Cu2.91 Fe0.09 O7
5304,[8032],Nd1Ba2Cu2.91Ga0.09O7-y,Nd1Ba2Cu2.91Ga0.09O7,"{'Ba': 2.0, 'Cu': 2.91, 'Ga': 0.09, 'Nd': 1.0, 'O': 7.0}",50.1,50.1,0.0,1,Nd1 Ba2 Cu2.91 Ga0.09 O7
5305,"[756, 841]",Y1Ba2Cu2.91Ga0.09O7-Z,Y1Ba2Cu2.91Ga0.09O7,"{'Ba': 2.0, 'Cu': 2.91, 'Ga': 0.09, 'O': 7.0, 'Y': 1.0}",83.71,80.605,3.105,2,Y1 Ba2 Cu2.91 Ga0.09 O7
5306,[10238],Y1Ba2Cu2.91Ni0.09O7-z,Y1Ba2Cu2.91Ni0.09O7,"{'Ba': 2.0, 'Cu': 2.91, 'Ni': 0.09, 'O': 7.0, 'Y': 1.0}",76.0,76.0,0.0,1,Y1 Ba2 Cu2.91 Ni0.09 O7
5307,[7987],Y1Ba2Cu2.91Zn0.09O6.6,Y1Ba2Cu2.91Zn0.09O6.6,"{'Ba': 2.0, 'Cu': 2.91, 'O': 6.6, 'Y': 1.0, 'Zn': 0.09}",6.0,6.0,0.0,1,Y1 Ba2 Cu2.91 Zn0.09 O6.6
5308,[7986],Y1Ba2Cu2.91Zn0.09O6.65,Y1Ba2Cu2.91Zn0.09O6.65,"{'Ba': 2.0, 'Cu': 2.91, 'O': 6.65, 'Y': 1.0, 'Zn': 0.09}",10.0,10.0,0.0,1,Y1 Ba2 Cu2.91 Zn0.09 O6.65
5309,"[7985, 9763]",Y1Ba2Cu2.91Zn0.09O6.68,Y1Ba2Cu2.91Zn0.09O6.68,"{'Ba': 2.0, 'Cu': 2.91, 'O': 6.68, 'Y': 1.0, 'Zn': 0.09}",60.0,35.0,25.0,2,Y1 Ba2 Cu2.91 Zn0.09 O6.68
5310,[7984],Y1Ba2Cu2.91Zn0.09O6.7,Y1Ba2Cu2.91Zn0.09O6.7,"{'Ba': 2.0, 'Cu': 2.91, 'O': 6.7, 'Y': 1.0, 'Zn': 0.09}",20.0,20.0,0.0,1,Y1 Ba2 Cu2.91 Zn0.09 O6.7
5311,[9766],Y1Ba2Cu2.91Zn0.09O6.73,Y1Ba2Cu2.91Zn0.09O6.73,"{'Ba': 2.0, 'Cu': 2.91, 'O': 6.73, 'Y': 1.0, 'Zn': 0.09}",25.0,25.0,0.0,1,Y1 Ba2 Cu2.91 Zn0.09 O6.73
5312,[7983],Y1Ba2Cu2.91Zn0.09O6.75,Y1Ba2Cu2.91Zn0.09O6.75,"{'Ba': 2.0, 'Cu': 2.91, 'O': 6.75, 'Y': 1.0, 'Zn': 0.09}",23.0,23.0,0.0,1,Y1 Ba2 Cu2.91 Zn0.09 O6.75
5313,[7982],Y1Ba2Cu2.91Zn0.09O6.77,Y1Ba2Cu2.91Zn0.09O6.77,"{'Ba': 2.0, 'Cu': 2.91, 'O': 6.77, 'Y': 1.0, 'Zn': 0.09}",30.0,30.0,0.0,1,Y1 Ba2 Cu2.91 Zn0.09 O6.77
5314,[9769],Y1Ba2Cu2.91Zn0.09O6.83,Y1Ba2Cu2.91Zn0.09O6.83,"{'Ba': 2.0, 'Cu': 2.91, 'O': 6.83, 'Y': 1.0, 'Zn': 0.09}",45.0,45.0,0.0,1,Y1 Ba2 Cu2.91 Zn0.09 O6.83
5315,[4317],Y1Ba2Cu2.91Ti0.09O6.9,Y1Ba2Cu2.91Ti0.09O6.9,"{'Ba': 2.0, 'Cu': 2.91, 'O': 6.9, 'Ti': 0.09, 'Y': 1.0}",74.1,74.1,0.0,1,Y1 Ba2 Cu2.91 Ti0.09 O6.9
5316,[9825],Y1Ba2Cu2.91Zn0.09O6.9,Y1Ba2Cu2.91Zn0.09O6.9,"{'Ba': 2.0, 'Cu': 2.91, 'O': 6.9, 'Y': 1.0, 'Zn': 0.09}",74.6,74.6,0.0,1,Y1 Ba2 Cu2.91 Zn0.09 O6.9
5317,[9760],Y1Ba2Cu2.91Zn0.09O6.93,Y1Ba2Cu2.91Zn0.09O6.93,"{'Ba': 2.0, 'Cu': 2.91, 'O': 6.93, 'Y': 1.0, 'Zn': 0.09}",55.0,55.0,0.0,1,Y1 Ba2 Cu2.91 Zn0.09 O6.93
5318,[7981],Y1Ba2Cu2.91Zn0.09O6.95,Y1Ba2Cu2.91Zn0.09O6.95,"{'Ba': 2.0, 'Cu': 2.91, 'O': 6.95, 'Y': 1.0, 'Zn': 0.09}",56.0,56.0,0.0,1,Y1 Ba2 Cu2.91 Zn0.09 O6.95
5319,[20039],Y1Ba2Cu2.91P0.09O7-z,Y1Ba2Cu2.91P0.09O7,"{'Ba': 2.0, 'Cu': 2.91, 'O': 7.0, 'P': 0.09, 'Y': 1.0}",80.97,80.97,0.0,1,Y1 Ba2 Cu2.91 P0.09 O7
5320,"[855, 1701, 2194, 7643, 8214, 10241]",Y1Ba2Cu2.91Zn0.09O7,Y1Ba2Cu2.91Zn0.09O7,"{'Ba': 2.0, 'Cu': 2.91, 'O': 7.0, 'Y': 1.0, 'Zn': 0.09}",58.7,56.6616666667,1.2069302198,6,Y1 Ba2 Cu2.91 Zn0.09 O7
5321,[5545],Y1Ba2Cu2.913Zn0.087O6+z,Y1Ba2Cu2.913Zn0.087O6,"{'Ba': 2.0, 'Cu': 2.9130000000000003, 'O': 6.0, 'Y': 1.0, 'Zn': 0.08700000000000001}",57.0,57.0,0.0,1,Y1 Ba2 Cu2.913 Zn0.087 O6
5322,[9058],Y1Ba2Cu2.919Zn0.081O6.7,Y1Ba2Cu2.919Zn0.081O6.7,"{'Ba': 2.0, 'Cu': 2.919, 'O': 6.7, 'Y': 1.0, 'Zn': 0.081}",17.0,17.0,0.0,1,Y1 Ba2 Cu2.919 Zn0.081 O6.7
5323,[9062],Y1Ba2Cu2.919Zn0.081O6.75,Y1Ba2Cu2.919Zn0.081O6.75,"{'Ba': 2.0, 'Cu': 2.919, 'O': 6.75, 'Y': 1.0, 'Zn': 0.081}",20.0,20.0,0.0,1,Y1 Ba2 Cu2.919 Zn0.081 O6.75
5324,[9063],Y1Ba2Cu2.919Zn0.081O6.8,Y1Ba2Cu2.919Zn0.081O6.8,"{'Ba': 2.0, 'Cu': 2.919, 'O': 6.8, 'Y': 1.0, 'Zn': 0.081}",24.0,24.0,0.0,1,Y1 Ba2 Cu2.919 Zn0.081 O6.8
5325,[9064],Y1Ba2Cu2.919Zn0.081O6.83,Y1Ba2Cu2.919Zn0.081O6.83,"{'Ba': 2.0, 'Cu': 2.919, 'O': 6.83, 'Y': 1.0, 'Zn': 0.081}",28.0,28.0,0.0,1,Y1 Ba2 Cu2.919 Zn0.081 O6.83
5326,[801],Y1Ba2Cu2.919Zn0.081O7-Z,Y1Ba2Cu2.919Zn0.081O7,"{'Ba': 2.0, 'Cu': 2.919, 'O': 7.0, 'Y': 1.0, 'Zn': 0.081}",47.4,47.4,0.0,1,Y1 Ba2 Cu2.919 Zn0.081 O7
5327,[8485],Dy1Ba2Cu2.92Fe0.08O7-z,Dy1Ba2Cu2.92Fe0.08O7,"{'Ba': 2.0, 'Cu': 2.92, 'Dy': 1.0, 'Fe': 0.08, 'O': 7.0}",74.0,74.0,0.0,1,Dy1 Ba2 Cu2.92 Fe0.08 O7
5328,[8500],Dy1Ba2Cu2.92Ni0.08O7-z,Dy1Ba2Cu2.92Ni0.08O7,"{'Ba': 2.0, 'Cu': 2.92, 'Dy': 1.0, 'Ni': 0.08, 'O': 7.0}",77.0,77.0,0.0,1,Dy1 Ba2 Cu2.92 Ni0.08 O7
5329,[8437],Dy1Ba2Cu2.92Zn0.08O7-y,Dy1Ba2Cu2.92Zn0.08O7,"{'Ba': 2.0, 'Cu': 2.92, 'Dy': 1.0, 'O': 7.0, 'Zn': 0.08}",60.6,60.6,0.0,1,Dy1 Ba2 Cu2.92 Zn0.08 O7
5330,[8421],Er1Ba2Cu2.92Zn0.08O7-y,Er1Ba2Cu2.92Zn0.08O7,"{'Ba': 2.0, 'Cu': 2.92, 'Er': 1.0, 'O': 7.0, 'Zn': 0.08}",62.7,62.7,0.0,1,Er1 Ba2 Cu2.92 Zn0.08 O7
5331,[8453],Eu1Ba2Cu2.92Zn0.08O7-y,Eu1Ba2Cu2.92Zn0.08O7,"{'Ba': 2.0, 'Cu': 2.92, 'Eu': 1.0, 'O': 7.0, 'Zn': 0.08}",54.1,54.1,0.0,1,Eu1 Ba2 Cu2.92 Zn0.08 O7
5332,[8477],Sm1Ba2Cu2.92Fe0.08O7-z,Sm1Ba2Cu2.92Fe0.08O7,"{'Ba': 2.0, 'Cu': 2.92, 'Fe': 0.08, 'O': 7.0, 'Sm': 1.0}",68.0,68.0,0.0,1,Sm1 Ba2 Cu2.92 Fe0.08 O7
5333,[3770],Y1Ba2Cu2.92Fe0.08O7,Y1Ba2Cu2.92Fe0.08O7,"{'Ba': 2.0, 'Cu': 2.92, 'Fe': 0.08, 'O': 7.0, 'Y': 1.0}",86.2,86.2,0.0,1,Y1 Ba2 Cu2.92 Fe0.08 O7
5334,[8031],Nb1Ba2Cu2.92Ga0.08O7-y,Nb1Ba2Cu2.92Ga0.08O7,"{'Ba': 2.0, 'Cu': 2.92, 'Ga': 0.08, 'Nb': 1.0, 'O': 7.0}",52.4,52.4,0.0,1,Nb1 Ba2 Cu2.92 Ga0.08 O7
5335,[8445],Gd1Ba2Cu2.92Zn0.08O7-y,Gd1Ba2Cu2.92Zn0.08O7,"{'Ba': 2.0, 'Cu': 2.92, 'Gd': 1.0, 'O': 7.0, 'Zn': 0.08}",55.9,55.9,0.0,1,Gd1 Ba2 Cu2.92 Zn0.08 O7
5336,[8469],Nd1Ba2Cu2.92Zn0.08O7-y,Nd1Ba2Cu2.92Zn0.08O7,"{'Ba': 2.0, 'Cu': 2.92, 'Nd': 1.0, 'O': 7.0, 'Zn': 0.08}",36.6,36.6,0.0,1,Nd1 Ba2 Cu2.92 Zn0.08 O7
5337,[8509],Sm1Ba2Cu2.92Zn0.08O6.85,Sm1Ba2Cu2.92Zn0.08O6.85,"{'Ba': 2.0, 'Cu': 2.92, 'O': 6.85, 'Sm': 1.0, 'Zn': 0.08}",49.0,49.0,0.0,1,Sm1 Ba2 Cu2.92 Zn0.08 O6.85
5338,[8461],Sm1Ba2Cu2.92Zn0.08O7-y,Sm1Ba2Cu2.92Zn0.08O7,"{'Ba': 2.0, 'Cu': 2.92, 'O': 7.0, 'Sm': 1.0, 'Zn': 0.08}",52.1,52.1,0.0,1,Sm1 Ba2 Cu2.92 Zn0.08 O7
5339,[8429],Y1Ba2Cu2.92Zn0.08O7-y,Y1Ba2Cu2.92Zn0.08O7,"{'Ba': 2.0, 'Cu': 2.92, 'O': 7.0, 'Y': 1.0, 'Zn': 0.08}",62.1,62.1,0.0,1,Y1 Ba2 Cu2.92 Zn0.08 O7
5340,[8415],Yb1Ba2Cu2.92Zn0.08O7-y,Yb1Ba2Cu2.92Zn0.08O7,"{'Ba': 2.0, 'Cu': 2.92, 'O': 7.0, 'Yb': 1.0, 'Zn': 0.08}",70.6,70.6,0.0,1,Yb1 Ba2 Cu2.92 Zn0.08 O7
5341,"[1042, 2972]",Gd1Ba2Cu2.925Fe0.075O7-Z,Gd1Ba2Cu2.925Fe0.075O7,"{'Ba': 2.0, 'Cu': 2.925, 'Fe': 0.075, 'Gd': 1.0, 'O': 7.0}",81.3,72.65,8.65,2,Gd1 Ba2 Cu2.925 Fe0.075 O7
5342,[8589],Ho1Ba2Cu2.925Fe0.075O7-y,Ho1Ba2Cu2.925Fe0.075O7,"{'Ba': 2.0, 'Cu': 2.925, 'Fe': 0.075, 'Ho': 1.0, 'O': 7.0}",88.0,88.0,0.0,1,Ho1 Ba2 Cu2.925 Fe0.075 O7
5343,[8580],Nd1Ba2Cu2.925Fe0.075O7-y,Nd1Ba2Cu2.925Fe0.075O7,"{'Ba': 2.0, 'Cu': 2.925, 'Fe': 0.075, 'Nd': 1.0, 'O': 7.0}",66.0,66.0,0.0,1,Nd1 Ba2 Cu2.925 Fe0.075 O7
5344,[8594],Tm1Ba2Cu2.925Fe0.075O7-y,Tm1Ba2Cu2.925Fe0.075O7,"{'Ba': 2.0, 'Cu': 2.925, 'Fe': 0.075, 'O': 7.0, 'Tm': 1.0}",89.0,89.0,0.0,1,Tm1 Ba2 Cu2.925 Fe0.075 O7
5345,"[1349, 8585, 9117]",Y1Ba2Cu2.925Fe0.075O7-Z,Y1Ba2Cu2.925Fe0.075O7,"{'Ba': 2.0, 'Cu': 2.925, 'Fe': 0.075, 'O': 7.0, 'Y': 1.0}",88.0,84.8,3.4563950392000002,3,Y1 Ba2 Cu2.925 Fe0.075 O7
5346,[8568],Ho1Ba2Cu2.925Ni0.075O7-y,Ho1Ba2Cu2.925Ni0.075O7,"{'Ba': 2.0, 'Cu': 2.925, 'Ho': 1.0, 'Ni': 0.075, 'O': 7.0}",90.0,90.0,0.0,1,Ho1 Ba2 Cu2.925 Ni0.075 O7