,sc_id,supercon_formula,cleaned_formula,material_dict,highest_Tc,average_Tc,std_Tc,entry_count,composition
2763,[16984],Ho1Rh3.4Ru0.6B4,Ho1Rh3.4Ru0.6B4,"{'B': 4.0, 'Ho': 1.0, 'Rh': 3.4, 'Ru': 0.6000000000000001}",6.14,6.14,0.0,1,Ho1 Rh3.4 Ru0.6 B4
2764,[16983],Ho1Rh3.6Ru0.4B4,Ho1Rh3.6Ru0.4B4,"{'B': 4.0, 'Ho': 1.0, 'Rh': 3.6, 'Ru': 0.4}",6.42,6.42,0.0,1,Ho1 Rh3.6 Ru0.4 B4
2765,[16982],Ho1Rh3.72Ru0.28B4,Ho1Rh3.72Ru0.28B4,"{'B': 4.0, 'Ho': 1.0, 'Rh': 3.7199999999999998, 'Ru': 0.28}",6.42,6.42,0.0,1,Ho1 Rh3.72 Ru0.28 B4
2766,[16729],Ho1Rh4B4,Ho1Rh4B4,"{'B': 4.0, 'Ho': 1.0, 'Rh': 4.0}",1.4,1.4,0.0,1,Ho1 Rh4 B4
2767,[16808],Lu1Ir2Rh2B4,Lu1Ir2Rh2B4,"{'B': 4.0, 'Ir': 2.0, 'Lu': 1.0, 'Rh': 2.0}",3.08,3.08,0.0,1,Lu1 Ir2 Rh2 B4
2768,[16807],Tm1Ir2Rh2B4,Tm1Ir2Rh2B4,"{'B': 4.0, 'Ir': 2.0, 'Rh': 2.0, 'Tm': 1.0}",4.38,4.38,0.0,1,Tm1 Ir2 Rh2 B4
2769,[16809],Y1Ir2Rh2B4,Y1Ir2Rh2B4,"{'B': 4.0, 'Ir': 2.0, 'Rh': 2.0, 'Y': 1.0}",8.92,8.92,0.0,1,Y1 Ir2 Rh2 B4
2770,[16798],Lu1Ir3.6Rh0.4B4,Lu1Ir3.6Rh0.4B4,"{'B': 4.0, 'Ir': 3.6, 'Lu': 1.0, 'Rh': 0.4}",2.67,2.67,0.0,1,Lu1 Ir3.6 Rh0.4 B4
2771,[16799],Sc0.1Y0.9Ir3.6Rh0.4B4,Sc0.1Y0.9Ir3.6Rh0.4B4,"{'B': 4.0, 'Ir': 3.6, 'Rh': 0.4, 'Sc': 0.1, 'Y': 0.9}",3.45,3.45,0.0,1,Sc0.1 Y0.9 Ir3.6 Rh0.4 B4
2772,[16800],Sc0.2Y0.8Ir3.6Rh0.4B4,Sc0.2Y0.8Ir3.6Rh0.4B4,"{'B': 4.0, 'Ir': 3.6, 'Rh': 0.4, 'Sc': 0.2, 'Y': 0.8}",3.01,3.01,0.0,1,Sc0.2 Y0.8 Ir3.6 Rh0.4 B4
2773,[16801],Sc0.25Y0.75Ir3.6Rh0.4B4,Sc0.25Y0.75Ir3.6Rh0.4B4,"{'B': 4.0, 'Ir': 3.6, 'Rh': 0.4, 'Sc': 0.25, 'Y': 0.75}",2.92,2.92,0.0,1,Sc0.25 Y0.75 Ir3.6 Rh0.4 B4
2774,[16802],Sc0.3Y0.7Ir3.6Rh0.4B4,Sc0.3Y0.7Ir3.6Rh0.4B4,"{'B': 4.0, 'Ir': 3.6, 'Rh': 0.4, 'Sc': 0.30000000000000004, 'Y': 0.7000000000000001}",3.09,3.09,0.0,1,Sc0.3 Y0.7 Ir3.6 Rh0.4 B4
2775,[16803],Sc0.5Y0.5Ir3.6Rh0.4B4,Sc0.5Y0.5Ir3.6Rh0.4B4,"{'B': 4.0, 'Ir': 3.6, 'Rh': 0.4, 'Sc': 0.5, 'Y': 0.5}",3.01,3.01,0.0,1,Sc0.5 Y0.5 Ir3.6 Rh0.4 B4
2776,[16797],Tm1Ir3.6Rh0.4B4,Tm1Ir3.6Rh0.4B4,"{'B': 4.0, 'Ir': 3.6, 'Rh': 0.4, 'Tm': 1.0}",1.48,1.48,0.0,1,Tm1 Ir3.6 Rh0.4 B4
2777,[16794],Y0.6Lu0.4Ir4B4,Y0.6Lu0.4Ir4B4,"{'B': 4.0, 'Ir': 4.0, 'Lu': 0.4, 'Y': 0.6000000000000001}",3.06,3.06,0.0,1,Y0.6 Lu0.4 Ir4 B4
2778,[16793],Y0.5Lu0.5Ir4B4,Y0.5Lu0.5Ir4B4,"{'B': 4.0, 'Ir': 4.0, 'Lu': 0.5, 'Y': 0.5}",3.21,3.21,0.0,1,Y0.5 Lu0.5 Ir4 B4
2779,[16792],Y0.4Lu0.6Ir4B4,Y0.4Lu0.6Ir4B4,"{'B': 4.0, 'Ir': 4.0, 'Lu': 0.6000000000000001, 'Y': 0.4}",3.07,3.07,0.0,1,Y0.4 Lu0.6 Ir4 B4
2780,[16791],Y0.3Lu0.7Ir4B4,Y0.3Lu0.7Ir4B4,"{'B': 4.0, 'Ir': 4.0, 'Lu': 0.7000000000000001, 'Y': 0.30000000000000004}",2.98,2.98,0.0,1,Y0.3 Lu0.7 Ir4 B4
2781,[16790],Y0.2Lu0.8Ir4B4,Y0.2Lu0.8Ir4B4,"{'B': 4.0, 'Ir': 4.0, 'Lu': 0.8, 'Y': 0.2}",3.04,3.04,0.0,1,Y0.2 Lu0.8 Ir4 B4
2782,"[16717, 21723]",Tm1Ir4B4,Tm1Ir4B4,"{'B': 4.0, 'Ir': 4.0, 'Tm': 1.0}",1.75,1.675,0.075,2,Tm1 Ir4 B4
2783,"[16713, 16732, 16957, 19277, 20591, 20866, 20869, 20881]",Lu1Rh4B4,Lu1Rh4B4,"{'B': 4.0, 'Lu': 1.0, 'Rh': 4.0}",11.76,10.093625,1.9735905057,8,Lu1 Rh4 B4
2784,[16720],Lu1Ru4B4,Lu1Ru4B4,"{'B': 4.0, 'Lu': 1.0, 'Ru': 4.0}",2.0,2.0,0.0,1,Lu1 Ru4 B4
2785,[12492],Nb80Si16B4,Nb80Si16B4,"{'B': 4.0, 'Nb': 80.0, 'Si': 16.0}",4.7,4.7,0.0,1,Nb80 Si16 B4
2786,"[16709, 19274, 20542]",Nd1Rh4B4,Nd1Rh4B4,"{'B': 4.0, 'Nd': 1.0, 'Rh': 4.0}",5.36,5.3233333333,0.0262466929,3,Nd1 Rh4 B4
2787,[18916],Y1Os1B4,Y1Os1B4,"{'B': 4.0, 'Os': 1.0, 'Y': 1.0}",1.4,1.4,0.0,1,Y1 Os1 B4
2788,"[16710, 19227, 19276, 20543]",Sm1Rh4B4,Sm1Rh4B4,"{'B': 4.0, 'Rh': 4.0, 'Sm': 1.0}",2.7199999999999998,2.6475,0.08227241340000001,4,Sm1 Rh4 B4
2789,"[16712, 16731, 19225, 19279, 20590, 21674]",Tm1Rh4B4,Tm1Rh4B4,"{'B': 4.0, 'Rh': 4.0, 'Tm': 1.0}",9.86,9.04,1.6298466186,6,Tm1 Rh4 B4
2790,"[16708, 19278, 20541, 20868]",Y1Rh4B4,Y1Rh4B4,"{'B': 4.0, 'Rh': 4.0, 'Y': 1.0}",11.34,10.95775,0.3625399116,4,Y1 Rh4 B4
2791,[18913],Y1Ru1B4,Y1Ru1B4,"{'B': 4.0, 'Ru': 1.0, 'Y': 1.0}",1.38,1.38,0.0,1,Y1 Ru1 B4
2792,"[16718, 20865]",Sc1Ru4B4,Sc1Ru4B4,"{'B': 4.0, 'Ru': 4.0, 'Sc': 1.0}",7.34,7.27,0.07,2,Sc1 Ru4 B4
2793,"[16719, 18912]",Y1Ru4B4,Y1Ru4B4,"{'B': 4.0, 'Ru': 4.0, 'Y': 1.0}",1.4,1.4,0.0,2,Y1 Ru4 B4
2794,[26173],B4.2W1,B4.2W1,"{'B': 4.2, 'W': 1.0}",2.1,2.1,0.0,1,B4.2 W1
2795,[5294],Ca1.3Sr2.7Cu3C0.55B4.5O3+z,Ca1.3Sr2.7Cu3C0.55B4.5O3,"{'B': 4.5, 'C': 0.55, 'Ca': 1.3, 'Cu': 3.0, 'O': 3.0, 'Sr': 2.7}",100.0,100.0,0.0,1,Ca1.3 Sr2.7 Cu3 C0.55 B4.5 O3
2796,[12972],B5Hf0.2Mo1.8,B5Hf0.2Mo1.8,"{'B': 5.0, 'Hf': 0.2, 'Mo': 1.8}",8.4,8.4,0.0,1,B5 Hf0.2 Mo1.8
2797,[12971],B5Hf0.2Nb1.8,B5Hf0.2Nb1.8,"{'B': 5.0, 'Hf': 0.2, 'Nb': 1.8}",3.6,3.6,0.0,1,B5 Hf0.2 Nb1.8
2798,[12975],B5Mo0.2Nb1.8,B5Mo0.2Nb1.8,"{'B': 5.0, 'Mo': 0.2, 'Nb': 1.8}",4.3,4.3,0.0,1,B5 Mo0.2 Nb1.8
2799,[12980],B5Mo1.69Zr0.31,B5Mo1.69Zr0.31,"{'B': 5.0, 'Mo': 1.69, 'Zr': 0.31}",11.2,11.2,0.0,1,B5 Mo1.69 Zr0.31
2800,[12974],B5Mo1.7Nb0.3,B5Mo1.7Nb0.3,"{'B': 5.0, 'Mo': 1.7000000000000002, 'Nb': 0.30000000000000004}",8.3,8.3,0.0,1,B5 Mo1.7 Nb0.3
2801,[12985],B5Mo1.7Ta0.3,B5Mo1.7Ta0.3,"{'B': 5.0, 'Mo': 1.7000000000000002, 'Ta': 0.30000000000000004}",7.0,7.0,0.0,1,B5 Mo1.7 Ta0.3
2802,[12984],B5Mo1.7Ti0.3,B5Mo1.7Ti0.3,"{'B': 5.0, 'Mo': 1.7000000000000002, 'Ti': 0.30000000000000004}",7.1,7.1,0.0,1,B5 Mo1.7 Ti0.3
2803,[12983],B5Mo1.7V0.3,B5Mo1.7V0.3,"{'B': 5.0, 'Mo': 1.7000000000000002, 'V': 0.30000000000000004}",5.5,5.5,0.0,1,B5 Mo1.7 V0.3
2804,[12988],B5Mo1.8Sc0.2,B5Mo1.8Sc0.2,"{'B': 5.0, 'Mo': 1.8, 'Sc': 0.2}",8.8,8.8,0.0,1,B5 Mo1.8 Sc0.2
2805,[12982],B5Mo1.9Y0.1,B5Mo1.9Y0.1,"{'B': 5.0, 'Mo': 1.9, 'Y': 0.1}",8.0,8.0,0.0,1,B5 Mo1.9 Y0.1
2806,[12981],B5Mo1.9Zr0.1,B5Mo1.9Zr0.1,"{'B': 5.0, 'Mo': 1.9, 'Zr': 0.1}",8.9,8.9,0.0,1,B5 Mo1.9 Zr0.1
2807,[12996],B5Nb1.8Ru0.2,B5Nb1.8Ru0.2,"{'B': 5.0, 'Nb': 1.8, 'Ru': 0.2}",6.0,6.0,0.0,1,B5 Nb1.8 Ru0.2
2808,[12992],B5Nb1.8V0.2,B5Nb1.8V0.2,"{'B': 5.0, 'Nb': 1.8, 'V': 0.2}",2.5,2.5,0.0,1,B5 Nb1.8 V0.2
2809,[12990],B5Nb1.8Zr0.2,B5Nb1.8Zr0.2,"{'B': 5.0, 'Nb': 1.8, 'Zr': 0.2}",5.9,5.9,0.0,1,B5 Nb1.8 Zr0.2
2810,[12995],B5Nb1.9Sc0.1,B5Nb1.9Sc0.1,"{'B': 5.0, 'Nb': 1.9, 'Sc': 0.1}",6.6,6.6,0.0,1,B5 Nb1.9 Sc0.1
2811,[12993],B5Nb1.9Ti0.1,B5Nb1.9Ti0.1,"{'B': 5.0, 'Nb': 1.9, 'Ti': 0.1}",4.0,4.0,0.0,1,B5 Nb1.9 Ti0.1
2812,[12991],B5Nb1.9Y0.1,B5Nb1.9Y0.1,"{'B': 5.0, 'Nb': 1.9, 'Y': 0.1}",9.3,9.3,0.0,1,B5 Nb1.9 Y0.1
2813,[20820],Y0.95Ce0.05B6,Y0.95Ce0.05B6,"{'B': 6.0, 'Ce': 0.05, 'Y': 0.9500000000000001}",1.6,1.6,0.0,1,Y0.95 Ce0.05 B6
2814,[20819],Y0.9Fe0.1B6,Y0.9Fe0.1B6,"{'B': 6.0, 'Fe': 0.1, 'Y': 0.9}",3.3,3.3,0.0,1,Y0.9 Fe0.1 B6
2815,[17570],Y0.9La0.1B6,Y0.9La0.1B6,"{'B': 6.0, 'La': 0.1, 'Y': 0.9}",6.8,6.8,0.0,1,Y0.9 La0.1 B6
2816,[17571],Y0.8La0.2B6,Y0.8La0.2B6,"{'B': 6.0, 'La': 0.2, 'Y': 0.8}",5.8,5.8,0.0,1,Y0.8 La0.2 B6
2817,[17572],Y0.65La0.35B6,Y0.65La0.35B6,"{'B': 6.0, 'La': 0.35000000000000003, 'Y': 0.65}",4.0,4.0,0.0,1,Y0.65 La0.35 B6
2818,[20818],Y0.6La0.4B6,Y0.6La0.4B6,"{'B': 6.0, 'La': 0.4, 'Y': 0.6000000000000001}",4.4,4.4,0.0,1,Y0.6 La0.4 B6
2819,[20821],Y0.5La0.5B6,Y0.5La0.5B6,"{'B': 6.0, 'La': 0.5, 'Y': 0.5}",1.6,1.6,0.0,1,Y0.5 La0.5 B6
2820,"[14899, 20283]",B6La1,B6La1,"{'B': 6.0, 'La': 1.0}",5.7,3.075,2.625,2,B6 La1
2821,[24135],La3Ru8B6,La3Ru8B6,"{'B': 6.0, 'La': 3.0, 'Ru': 8.0}",3.15,3.15,0.0,1,La3 Ru8 B6
2822,[13000],B6Nd1,B6Nd1,"{'B': 6.0, 'Nd': 1.0}",3.0,3.0,0.0,1,B6 Nd1
2823,[19226],Nd1Rh6B6,Nd1Rh6B6,"{'B': 6.0, 'Nd': 1.0, 'Rh': 6.0}",5.4,5.4,0.0,1,Nd1 Rh6 B6
2824,[24636],Y3Os8B6,Y3Os8B6,"{'B': 6.0, 'Os': 8.0, 'Y': 3.0}",5.8,5.8,0.0,1,Y3 Os8 B6
2825,[24634],Sr3Rh8B6,Sr3Rh8B6,"{'B': 6.0, 'Rh': 8.0, 'Sr': 3.0}",3.4,3.4,0.0,1,Sr3 Rh8 B6
2826,"[11528, 13008, 17569, 20817, 24354, 24355, 25967, 25968, 25969, 25970]",B6Y1,B6Y1,"{'B': 6.0, 'Y': 1.0}",7.55,6.66,0.7402026749,10,B6 Y1
2827,[19386],B6Y6,B6Y6,"{'B': 6.0, 'Y': 6.0}",7.5,7.5,0.0,1,B6 Y6
2828,[12351],Mo64Re16P10B10,Mo64Re16P10B10,"{'B': 10.0, 'Mo': 64.0, 'P': 10.0, 'Re': 16.0}",8.71,8.71,0.0,1,Mo64 Re16 P10 B10
2829,[12350],Mo80P10B10,Mo80P10B10,"{'B': 10.0, 'Mo': 80.0, 'P': 10.0}",9.0,9.0,0.0,1,Mo80 P10 B10
2830,[11409],Mg1.9Cu0.1B12,Mg1.9Cu0.1B12,"{'B': 12.0, 'Cu': 0.1, 'Mg': 1.9}",37.3,37.3,0.0,1,Mg1.9 Cu0.1 B12
2831,[11410],Mg1.8Cu0.2B12,Mg1.8Cu0.2B12,"{'B': 12.0, 'Cu': 0.2, 'Mg': 1.8}",36.5,36.5,0.0,1,Mg1.8 Cu0.2 B12
2832,[22284],B12Li1.7,B12Li1.7,"{'B': 12.0, 'Li': 1.7000000000000002}",7.05,7.05,0.0,1,B12 Li1.7
2833,[22283],B12Li2.5,B12Li2.5,"{'B': 12.0, 'Li': 2.5}",6.62,6.62,0.0,1,B12 Li2.5
2834,"[24613, 25827]",Zr0.993Lu0.007B12,Zr0.993Lu0.007B12,"{'B': 12.0, 'Lu': 0.007, 'Zr': 0.993}",5.97,5.89,0.08,2,Zr0.993 Lu0.007 B12
2835,[24614],Zr0.985Lu0.015B12,Zr0.985Lu0.015B12,"{'B': 12.0, 'Lu': 0.015, 'Zr': 0.985}",5.67,5.67,0.0,1,Zr0.985 Lu0.015 B12
2836,[24615],Zr0.984Lu0.016B12,Zr0.984Lu0.016B12,"{'B': 12.0, 'Lu': 0.016, 'Zr': 0.984}",5.65,5.65,0.0,1,Zr0.984 Lu0.016 B12
2837,"[25761, 25825]",Lu0.04Zr0.96B12,Lu0.04Zr0.96B12,"{'B': 12.0, 'Lu': 0.04, 'Zr': 0.96}",5.47,4.78,0.6900000000000001,2,Lu0.04 Zr0.96 B12
2838,[24616],Zr0.935Lu0.065B12,Zr0.935Lu0.065B12,"{'B': 12.0, 'Lu': 0.065, 'Zr': 0.935}",4.77,4.77,0.0,1,Zr0.935 Lu0.065 B12
2839,[25762],Lu0.07Zr0.93B12,Lu0.07Zr0.93B12,"{'B': 12.0, 'Lu': 0.07, 'Zr': 0.93}",3.64,3.64,0.0,1,Lu0.07 Zr0.93 B12
2840,"[24617, 25828]",Zr0.926Lu0.074B12,Zr0.926Lu0.074B12,"{'B': 12.0, 'Lu': 0.074, 'Zr': 0.926}",4.78,4.635,0.145,2,Zr0.926 Lu0.074 B12
2841,[25763],Lu0.17Zr0.83B12,Lu0.17Zr0.83B12,"{'B': 12.0, 'Lu': 0.17, 'Zr': 0.8300000000000001}",3.41,3.41,0.0,1,Lu0.17 Zr0.83 B12
2842,[25826],Zr0.8Lu0.2B12,Zr0.8Lu0.2B12,"{'B': 12.0, 'Lu': 0.2, 'Zr': 0.8}",3.9,3.9,0.0,1,Zr0.8 Lu0.2 B12
2843,[25764],Lu0.8Zr0.2B12,Lu0.8Zr0.2B12,"{'B': 12.0, 'Lu': 0.8, 'Zr': 0.2}",0.55,0.55,0.0,1,Lu0.8 Zr0.2 B12
2844,"[12978, 20813, 20815, 20816]",B12Lu1,B12Lu1,"{'B': 12.0, 'Lu': 1.0}",0.48,0.435,0.029580398900000002,4,B12 Lu1
2845,[13002],B12Sc1,B12Sc1,"{'B': 12.0, 'Sc': 1.0}",0.39,0.39,0.0,1,B12 Sc1
2846,"[13009, 14906]",B12Y1,B12Y1,"{'B': 12.0, 'Y': 1.0}",4.7,4.7,0.0,2,B12 Y1
2847,[13007],B12Yb0.01Zr0.99,B12Yb0.01Zr0.99,"{'B': 12.0, 'Yb': 0.01, 'Zr': 0.99}",4.4,4.4,0.0,1,B12 Yb0.01 Zr0.99
2848,"[11399, 11717, 11718, 12503, 12693, 12773, 13006, 14905, 17537, 20827, 24612]",B12Zr1,B12Zr1,"{'B': 12.0, 'Zr': 1.0}",6.2,5.9909090909,0.1004946444,11,B12 Zr1
2849,"[12093, 20963, 21861, 21862]",Mg10Ir19B16,Mg10Ir19B16,"{'B': 16.0, 'Ir': 19.0, 'Mg': 10.0}",4.45,4.0875,0.3398069305,4,Mg10 Ir19 B16
2850,"[20179, 21872, 21873, 21874]",Mg12Ir19B16,Mg12Ir19B16,"{'B': 16.0, 'Ir': 19.0, 'Mg': 12.0}",5.7,4.65,1.3067134345,4,Mg12 Ir19 B16
2851,[21227],Mg9.3Ir19B16.7,Mg9.3Ir19B16.7,"{'B': 16.7, 'Ir': 19.0, 'Mg': 9.3}",5.8,5.8,0.0,1,Mg9.3 Ir19 B16.7
2852,[21228],Mg10.5Ir19B17.1,Mg10.5Ir19B17.1,"{'B': 17.1, 'Ir': 19.0, 'Mg': 10.5}",4.8,4.8,0.0,1,Mg10.5 Ir19 B17.1
2853,[21016],B105,B105,{'B': 105.0},1.5,1.5,0.0,1,B105
2854,[10234],La1.875Ba0.005Sr0.12Cu1O4,La1.875Ba0.005Sr0.12Cu1O4,"{'Ba': 0.005, 'Cu': 1.0, 'La': 1.875, 'O': 4.0, 'Sr': 0.12}",31.1,31.1,0.0,1,La1.875 Ba0.005 Sr0.12 Cu1 O4
2855,[9898],La1.736Nd0.114Ca0.138Ba0.012Cu1O4.02,La1.736Nd0.114Ca0.138Ba0.012Cu1O4.02,"{'Ba': 0.012, 'Ca': 0.138, 'Cu': 1.0, 'La': 1.736, 'Nd': 0.114, 'O': 4.02}",29.4,29.4,0.0,1,La1.736 Nd0.114 Ca0.138 Ba0.012 Cu1 O4.02
2856,[6327],La1.736Nd0.117Ca0.138Ba0.012Cu1O4,La1.736Nd0.117Ca0.138Ba0.012Cu1O4,"{'Ba': 0.012, 'Ca': 0.138, 'Cu': 1.0, 'La': 1.736, 'Nd': 0.117, 'O': 4.0}",29.4,29.4,0.0,1,La1.736 Nd0.117 Ca0.138 Ba0.012 Cu1 O4
2857,[9891],La1.85Sr0.12Ca0.016Ba0.014Cu1O3.99,La1.85Sr0.12Ca0.016Ba0.014Cu1O3.99,"{'Ba': 0.014, 'Ca': 0.016, 'Cu': 1.0, 'La': 1.85, 'O': 3.99, 'Sr': 0.12}",34.1,34.1,0.0,1,La1.85 Sr0.12 Ca0.016 Ba0.014 Cu1 O3.99
2858,[6331],La1.85Sr0.12Ca0.016Ba0.014Cu1O4,La1.85Sr0.12Ca0.016Ba0.014Cu1O4,"{'Ba': 0.014, 'Ca': 0.016, 'Cu': 1.0, 'La': 1.85, 'O': 4.0, 'Sr': 0.12}",30.0,30.0,0.0,1,La1.85 Sr0.12 Ca0.016 Ba0.014 Cu1 O4
2859,"[2369, 10233]",La1.875Ba0.025Sr0.1Cu1O4,La1.875Ba0.025Sr0.1Cu1O4,"{'Ba': 0.025, 'Cu': 1.0, 'La': 1.875, 'O': 4.0, 'Sr': 0.1}",30.2,29.65,0.55,2,La1.875 Ba0.025 Sr0.1 Cu1 O4
2860,[9892],La1.85Sr0.09Ca0.034Ba0.026Cu1O3.99,La1.85Sr0.09Ca0.034Ba0.026Cu1O3.99,"{'Ba': 0.026000000000000002, 'Ca': 0.034, 'Cu': 1.0, 'La': 1.85, 'O': 3.99, 'Sr': 0.09}",32.2,32.2,0.0,1,La1.85 Sr0.09 Ca0.034 Ba0.026 Cu1 O3.99
2861,[6332],La1.85Sr0.09Ca0.034Ba0.026Cu1O4,La1.85Sr0.09Ca0.034Ba0.026Cu1O4,"{'Ba': 0.026000000000000002, 'Ca': 0.034, 'Cu': 1.0, 'La': 1.85, 'O': 4.0, 'Sr': 0.09}",28.5,28.5,0.0,1,La1.85 Sr0.09 Ca0.034 Ba0.026 Cu1 O4
2862,[9899],La1.65Nd0.2Ca0.122Ba0.028Cu1O3.99,La1.65Nd0.2Ca0.122Ba0.028Cu1O3.99,"{'Ba': 0.028, 'Ca': 0.122, 'Cu': 1.0, 'La': 1.65, 'Nd': 0.2, 'O': 3.99}",27.1,27.1,0.0,1,La1.65 Nd0.2 Ca0.122 Ba0.028 Cu1 O3.99
2863,[6328],La1.65Nd0.2Ca0.122Ba0.028Cu1O4,La1.65Nd0.2Ca0.122Ba0.028Cu1O4,"{'Ba': 0.028, 'Ca': 0.122, 'Cu': 1.0, 'La': 1.65, 'Nd': 0.2, 'O': 4.0}",27.1,27.1,0.0,1,La1.65 Nd0.2 Ca0.122 Ba0.028 Cu1 O4
2864,[9893],La1.85Sr0.06Ca0.05Ba0.04Cu1O3.99,La1.85Sr0.06Ca0.05Ba0.04Cu1O3.99,"{'Ba': 0.04, 'Ca': 0.05, 'Cu': 1.0, 'La': 1.85, 'O': 3.99, 'Sr': 0.06}",30.0,30.0,0.0,1,La1.85 Sr0.06 Ca0.05 Ba0.04 Cu1 O3.99
2865,[6333],La1.85Sr0.06Ca0.05Ba0.04Cu1O4,La1.85Sr0.06Ca0.05Ba0.04Cu1O4,"{'Ba': 0.04, 'Ca': 0.05, 'Cu': 1.0, 'La': 1.85, 'O': 4.0, 'Sr': 0.06}",27.0,27.0,0.0,1,La1.85 Sr0.06 Ca0.05 Ba0.04 Cu1 O4
2866,[10232],La1.875Ba0.04Sr0.085Cu1O4,La1.875Ba0.04Sr0.085Cu1O4,"{'Ba': 0.04, 'Cu': 1.0, 'La': 1.875, 'O': 4.0, 'Sr': 0.085}",31.7,31.7,0.0,1,La1.875 Ba0.04 Sr0.085 Cu1 O4
2867,[1793],La1.94Ba0.04Cu1O4,La1.94Ba0.04Cu1O4,"{'Ba': 0.04, 'Cu': 1.0, 'La': 1.94, 'O': 4.0}",4.0,4.0,0.0,1,La1.94 Ba0.04 Cu1 O4
2868,[9900],La1.562Nd0.288Ca0.106Ba0.044Cu1O3.98,La1.562Nd0.288Ca0.106Ba0.044Cu1O3.98,"{'Ba': 0.044, 'Ca': 0.106, 'Cu': 1.0, 'La': 1.562, 'Nd': 0.28800000000000003, 'O': 3.98}",23.0,23.0,0.0,1,La1.562 Nd0.288 Ca0.106 Ba0.044 Cu1 O3.98
2869,[6329],La1.562Nd0.288Ca0.106Ba0.044Cu1O4,La1.562Nd0.288Ca0.106Ba0.044Cu1O4,"{'Ba': 0.044, 'Ca': 0.106, 'Cu': 1.0, 'La': 1.562, 'Nd': 0.28800000000000003, 'O': 4.0}",23.0,23.0,0.0,1,La1.562 Nd0.288 Ca0.106 Ba0.044 Cu1 O4
2870,"[2368, 10231]",La1.875Ba0.05Sr0.075Cu1O4,La1.875Ba0.05Sr0.075Cu1O4,"{'Ba': 0.05, 'Cu': 1.0, 'La': 1.875, 'O': 4.0, 'Sr': 0.075}",17.0,15.25,1.75,2,La1.875 Ba0.05 Sr0.075 Cu1 O4
2871,[3530],La1.95Ba0.05Cu1O4,La1.95Ba0.05Cu1O4,"{'Ba': 0.05, 'Cu': 1.0, 'La': 1.9500000000000002, 'O': 4.0}",33.6,33.6,0.0,1,La1.95 Ba0.05 Cu1 O4
2872,"[12607, 12650]",Sr0.95Ba0.05Ti1O3,Sr0.95Ba0.05Ti1O3,"{'Ba': 0.05, 'O': 3.0, 'Sr': 0.9500000000000001, 'Ti': 1.0}",0.55,0.525,0.025,2,Sr0.95 Ba0.05 Ti1 O3
2873,[6334],La1.85Sr0.03Ca0.066Ba0.054Cu1O4,La1.85Sr0.03Ca0.066Ba0.054Cu1O4,"{'Ba': 0.054, 'Ca': 0.066, 'Cu': 1.0, 'La': 1.85, 'O': 4.0, 'Sr': 0.03}",24.0,24.0,0.0,1,La1.85 Sr0.03 Ca0.066 Ba0.054 Cu1 O4
2874,[6335],La1.85Sr0.016Ca0.074Ba0.06Cu1O4,La1.85Sr0.016Ca0.074Ba0.06Cu1O4,"{'Ba': 0.06, 'Ca': 0.074, 'Cu': 1.0, 'La': 1.85, 'O': 4.0, 'Sr': 0.016}",23.5,23.5,0.0,1,La1.85 Sr0.016 Ca0.074 Ba0.06 Cu1 O4
2875,[9894],La1.85Sr0.016Ca0.074Ba0.06Cu1O4.01,La1.85Sr0.016Ca0.074Ba0.06Cu1O4.01,"{'Ba': 0.06, 'Ca': 0.074, 'Cu': 1.0, 'La': 1.85, 'O': 4.01, 'Sr': 0.016}",25.4,25.4,0.0,1,La1.85 Sr0.016 Ca0.074 Ba0.06 Cu1 O4.01
2876,"[2258, 4994, 4997]",La1.94Ba0.06Cu1O4,La1.94Ba0.06Cu1O4,"{'Ba': 0.06, 'Cu': 1.0, 'La': 1.94, 'O': 4.0}",16.5,14.0666666667,2.7644569489,3,La1.94 Ba0.06 Cu1 O4
2877,[10230],La1.875Ba0.065Sr0.06Cu1O4,La1.875Ba0.065Sr0.06Cu1O4,"{'Ba': 0.065, 'Cu': 1.0, 'La': 1.875, 'O': 4.0, 'Sr': 0.06}",10.4,10.4,0.0,1,La1.875 Ba0.065 Sr0.06 Cu1 O4
2878,[6943],La1.934Ba0.066Cu1O4,La1.934Ba0.066Cu1O4,"{'Ba': 0.066, 'Cu': 1.0, 'La': 1.9340000000000002, 'O': 4.0}",22.6,22.6,0.0,1,La1.934 Ba0.066 Cu1 O4
2879,[6336],La1.85Ca0.082Ba0.068Cu1O4,La1.85Ca0.082Ba0.068Cu1O4,"{'Ba': 0.068, 'Ca': 0.082, 'Cu': 1.0, 'La': 1.85, 'O': 4.0}",20.0,20.0,0.0,1,La1.85 Ca0.082 Ba0.068 Cu1 O4
2880,[7055],La1.83Nd0.1Ba0.07Cu1O4,La1.83Nd0.1Ba0.07Cu1O4,"{'Ba': 0.07, 'Cu': 1.0, 'La': 1.83, 'Nd': 0.1, 'O': 4.0}",16.0,16.0,0.0,1,La1.83 Nd0.1 Ba0.07 Cu1 O4
2881,"[2264, 6944]",La1.93Ba0.07Cu1O4,La1.93Ba0.07Cu1O4,"{'Ba': 0.07, 'Cu': 1.0, 'La': 1.9300000000000002, 'O': 4.0}",23.4,21.2,2.2,2,La1.93 Ba0.07 Cu1 O4
2882,"[2367, 10229]",La1.875Ba0.075Sr0.05Cu1O4,La1.875Ba0.075Sr0.05Cu1O4,"{'Ba': 0.075, 'Cu': 1.0, 'La': 1.875, 'O': 4.0, 'Sr': 0.05}",9.6,8.8,0.8,2,La1.875 Ba0.075 Sr0.05 Cu1 O4
2883,"[9702, 20703]",La1.925Ba0.075Cu1O4+Z,La1.925Ba0.075Cu1O4,"{'Ba': 0.075, 'Cu': 1.0, 'La': 1.925, 'O': 4.0}",34.0,29.0,5.0,2,La1.925 Ba0.075 Cu1 O4
2884,[12595],Sr0.925Ba0.075Ti1O3,Sr0.925Ba0.075Ti1O3,"{'Ba': 0.075, 'O': 3.0, 'Sr': 0.925, 'Ti': 1.0}",0.5,0.5,0.0,1,Sr0.925 Ba0.075 Ti1 O3
2885,[6337],La1.8Nd0.05Ca0.074Ba0.076Cu1O4,La1.8Nd0.05Ca0.074Ba0.076Cu1O4,"{'Ba': 0.076, 'Ca': 0.074, 'Cu': 1.0, 'La': 1.8, 'Nd': 0.05, 'O': 4.0}",2.05,2.05,0.0,1,La1.8 Nd0.05 Ca0.074 Ba0.076 Cu1 O4
2886,[9895],La1.8Nd0.05Ca0.074Ba0.076Cu1O4.01,La1.8Nd0.05Ca0.074Ba0.076Cu1O4.01,"{'Ba': 0.076, 'Ca': 0.074, 'Cu': 1.0, 'La': 1.8, 'Nd': 0.05, 'O': 4.01}",23.7,23.7,0.0,1,La1.8 Nd0.05 Ca0.074 Ba0.076 Cu1 O4.01
2887,"[1794, 2265, 2342]",La1.922Ba0.078Cu1O4,La1.922Ba0.078Cu1O4,"{'Ba': 0.078, 'Cu': 1.0, 'La': 1.9220000000000002, 'O': 4.0}",27.0,25.5,1.84571576,3,La1.922 Ba0.078 Cu1 O4
2888,[7067],La1.52Nd0.4Ba0.08Cu1O4,La1.52Nd0.4Ba0.08Cu1O4,"{'Ba': 0.08, 'Cu': 1.0, 'La': 1.52, 'Nd': 0.4, 'O': 4.0}",11.0,11.0,0.0,1,La1.52 Nd0.4 Ba0.08 Cu1 O4
2889,[7061],La1.72Nd0.2Ba0.08Cu1O4,La1.72Nd0.2Ba0.08Cu1O4,"{'Ba': 0.08, 'Cu': 1.0, 'La': 1.72, 'Nd': 0.2, 'O': 4.0}",16.9,16.9,0.0,1,La1.72 Nd0.2 Ba0.08 Cu1 O4
2890,"[2908, 3531, 4995, 4998, 6945, 6953, 7042, 20516]",La1.92Ba0.08Cu1O4,La1.92Ba0.08Cu1O4,"{'Ba': 0.08, 'Cu': 1.0, 'La': 1.92, 'O': 4.0}",32.2,28.65,2.4310491562,8,La1.92 Ba0.08 Cu1 O4
2891,[6338],La1.75Nd0.1Ca0.064Ba0.086Cu1O4,La1.75Nd0.1Ca0.064Ba0.086Cu1O4,"{'Ba': 0.08600000000000001, 'Ca': 0.064, 'Cu': 1.0, 'La': 1.75, 'Nd': 0.1, 'O': 4.0}",18.0,18.0,0.0,1,La1.75 Nd0.1 Ca0.064 Ba0.086 Cu1 O4
2892,[9896],La1.75Nd0.1Ca0.064Ba0.086Cu1O4.03,La1.75Nd0.1Ca0.064Ba0.086Cu1O4.03,"{'Ba': 0.08600000000000001, 'Ca': 0.064, 'Cu': 1.0, 'La': 1.75, 'Nd': 0.1, 'O': 4.03}",20.6,20.6,0.0,1,La1.75 Nd0.1 Ca0.064 Ba0.086 Cu1 O4.03
2893,"[1246, 4996, 4999, 20704]",La1.91Ba0.09Cu1O4,La1.91Ba0.09Cu1O4,"{'Ba': 0.09, 'Cu': 1.0, 'La': 1.9100000000000001, 'O': 4.0}",32.5,30.525,1.5270478054,4,La1.91 Ba0.09 Cu1 O4
2894,[6339],La1.7Nd0.15Ca0.056Ba0.094Cu1O4,La1.7Nd0.15Ca0.056Ba0.094Cu1O4,"{'Ba': 0.094, 'Ca': 0.056, 'Cu': 1.0, 'La': 1.7000000000000002, 'Nd': 0.15, 'O': 4.0}",16.0,16.0,0.0,1,La1.7 Nd0.15 Ca0.056 Ba0.094 Cu1 O4
2895,"[1795, 2339]",La1.906Ba0.094Cu1O4,La1.906Ba0.094Cu1O4,"{'Ba': 0.094, 'Cu': 1.0, 'La': 1.9060000000000001, 'O': 4.0}",32.0,32.0,0.0,2,La1.906 Ba0.094 Cu1 O4
2896,"[9165, 20517]",La1.905Ba0.095Cu1O4,La1.905Ba0.095Cu1O4,"{'Ba': 0.095, 'Cu': 1.0, 'La': 1.905, 'O': 4.0}",31.0,29.0,2.0,2,La1.905 Ba0.095 Cu1 O4
2897,[2266],La1.903Ba0.097Cu1O4,La1.903Ba0.097Cu1O4,"{'Ba': 0.097, 'Cu': 1.0, 'La': 1.903, 'O': 4.0}",26.0,26.0,0.0,1,La1.903 Ba0.097 Cu1 O4
2898,[20390],La1.901Ba0.099Cu1O4,La1.901Ba0.099Cu1O4,"{'Ba': 0.099, 'Cu': 1.0, 'La': 1.901, 'O': 4.0}",12.3,12.3,0.0,1,La1.901 Ba0.099 Cu1 O4
2899,[2249],La1.9Ba0.1Cu0.99Ga0.01O4,La1.9Ba0.1Cu0.99Ga0.01O4,"{'Ba': 0.1, 'Cu': 0.99, 'Ga': 0.01, 'La': 1.9, 'O': 4.0}",14.3,14.3,0.0,1,La1.9 Ba0.1 Cu0.99 Ga0.01 O4
2900,[2279],La1.9Ba0.1Cu0.99Ni0.01O4,La1.9Ba0.1Cu0.99Ni0.01O4,"{'Ba': 0.1, 'Cu': 0.99, 'La': 1.9, 'Ni': 0.01, 'O': 4.0}",17.0,17.0,0.0,1,La1.9 Ba0.1 Cu0.99 Ni0.01 O4
2901,[2254],La1.9Ba0.1Cu0.99Zn0.01O4,La1.9Ba0.1Cu0.99Zn0.01O4,"{'Ba': 0.1, 'Cu': 0.99, 'La': 1.9, 'O': 4.0, 'Zn': 0.01}",9.8,9.8,0.0,1,La1.9 Ba0.1 Cu0.99 Zn0.01 O4
2902,[4140],Sr1.9Ba0.1Cu1F2O2,Sr1.9Ba0.1Cu1F2O2,"{'Ba': 0.1, 'Cu': 1.0, 'F': 2.0, 'O': 2.0, 'Sr': 1.9}",54.0,54.0,0.0,1,Sr1.9 Ba0.1 Cu1 F2 O2
2903,[7068],La1.5Nd0.4Ba0.1Cu1O4,La1.5Nd0.4Ba0.1Cu1O4,"{'Ba': 0.1, 'Cu': 1.0, 'La': 1.5, 'Nd': 0.4, 'O': 4.0}",9.95,9.95,0.0,1,La1.5 Nd0.4 Ba0.1 Cu1 O4
2904,[7062],La1.7Nd0.2Ba0.1Cu1O4,La1.7Nd0.2Ba0.1Cu1O4,"{'Ba': 0.1, 'Cu': 1.0, 'La': 1.7000000000000002, 'Nd': 0.2, 'O': 4.0}",15.0,15.0,0.0,1,La1.7 Nd0.2 Ba0.1 Cu1 O4