,sc_id,supercon_formula,cleaned_formula,material_dict,highest_Tc,average_Tc,std_Tc,entry_count,composition
4505,[10679],Tl2Ba2Ca0.95Y0.05Cu1.96Co0.04O8+z,Tl2Ba2Ca0.95Y0.05Cu1.96Co0.04O8,"{'Ba': 2.0, 'Ca': 0.9500000000000001, 'Co': 0.04, 'Cu': 1.96, 'O': 8.0, 'Tl': 2.0, 'Y': 0.05}",102.4,102.4,0.0,1,Tl2 Ba2 Ca0.95 Y0.05 Cu1.96 Co0.04 O8
4506,[10680],Tl2Ba2Ca0.95Y0.05Cu1.92Co0.08O8+z,Tl2Ba2Ca0.95Y0.05Cu1.92Co0.08O8,"{'Ba': 2.0, 'Ca': 0.9500000000000001, 'Co': 0.08, 'Cu': 1.92, 'O': 8.0, 'Tl': 2.0, 'Y': 0.05}",92.6,92.6,0.0,1,Tl2 Ba2 Ca0.95 Y0.05 Cu1.92 Co0.08 O8
4507,[10681],Tl2Ba2Ca0.95Y0.05Cu1.88Co0.12O8+z,Tl2Ba2Ca0.95Y0.05Cu1.88Co0.12O8,"{'Ba': 2.0, 'Ca': 0.9500000000000001, 'Co': 0.12, 'Cu': 1.88, 'O': 8.0, 'Tl': 2.0, 'Y': 0.05}",85.5,85.5,0.0,1,Tl2 Ba2 Ca0.95 Y0.05 Cu1.88 Co0.12 O8
4508,[10678],Tl2Ba2Ca0.95Y0.05Cu2O8+z,Tl2Ba2Ca0.95Y0.05Cu2O8,"{'Ba': 2.0, 'Ca': 0.9500000000000001, 'Cu': 2.0, 'O': 8.0, 'Tl': 2.0, 'Y': 0.05}",106.5,106.5,0.0,1,Tl2 Ba2 Ca0.95 Y0.05 Cu2 O8
4509,[10675],Tl2Ba2Ca1Cu1.96Co0.04O8+z,Tl2Ba2Ca1Cu1.96Co0.04O8,"{'Ba': 2.0, 'Ca': 1.0, 'Co': 0.04, 'Cu': 1.96, 'O': 8.0, 'Tl': 2.0}",101.3,101.3,0.0,1,Tl2 Ba2 Ca1 Cu1.96 Co0.04 O8
4510,[21508],Tl0.25Li0.25Ba2Ca1Mg1Cu3.45Co0.05O10-z,Tl0.25Li0.25Ba2Ca1Mg1Cu3.45Co0.05O10,"{'Ba': 2.0, 'Ca': 1.0, 'Co': 0.05, 'Cu': 3.45, 'Li': 0.25, 'Mg': 1.0, 'O': 10.0, 'Tl': 0.25}",112.0,112.0,0.0,1,Tl0.25 Li0.25 Ba2 Ca1 Mg1 Cu3.45 Co0.05 O10
4511,[21511],Tl0.5Ba2Ca1Mg1Cu3.45Co0.05O10-z,Tl0.5Ba2Ca1Mg1Cu3.45Co0.05O10,"{'Ba': 2.0, 'Ca': 1.0, 'Co': 0.05, 'Cu': 3.45, 'Mg': 1.0, 'O': 10.0, 'Tl': 0.5}",96.0,96.0,0.0,1,Tl0.5 Ba2 Ca1 Mg1 Cu3.45 Co0.05 O10
4512,[10676],Tl2Ba2Ca1Cu1.92Co0.08O8+z,Tl2Ba2Ca1Cu1.92Co0.08O8,"{'Ba': 2.0, 'Ca': 1.0, 'Co': 0.08, 'Cu': 1.92, 'O': 8.0, 'Tl': 2.0}",94.2,94.2,0.0,1,Tl2 Ba2 Ca1 Cu1.92 Co0.08 O8
4513,[10677],Tl2Ba2Ca1Cu1.88Co0.12O8+z,Tl2Ba2Ca1Cu1.88Co0.12O8,"{'Ba': 2.0, 'Ca': 1.0, 'Co': 0.12, 'Cu': 1.88, 'O': 8.0, 'Tl': 2.0}",88.5,88.5,0.0,1,Tl2 Ba2 Ca1 Cu1.88 Co0.12 O8
4514,"[4108, 4109]",Hg0.8Cr0.2Ba2Ca1Cu2O6.1,Hg0.8Cr0.2Ba2Ca1Cu2O6.1,"{'Ba': 2.0, 'Ca': 1.0, 'Cr': 0.2, 'Cu': 2.0, 'Hg': 0.8, 'O': 6.1}",115.0,112.5,2.5,2,Hg0.8 Cr0.2 Ba2 Ca1 Cu2 O6.1
4515,[20293],Tl0.5Ba2Ca1Mg1Cu1Zn2.5O10-z,Tl0.5Ba2Ca1Mg1Cu1Zn2.5O10,"{'Ba': 2.0, 'Ca': 1.0, 'Cu': 1.0, 'Mg': 1.0, 'O': 10.0, 'Tl': 0.5, 'Zn': 2.5}",112.0,112.0,0.0,1,Tl0.5 Ba2 Ca1 Mg1 Cu1 Zn2.5 O10
4516,[11856],Tl2Ba2Ca1Cu1.98Fe0.02F0.1O7.95,Tl2Ba2Ca1Cu1.98Fe0.02F0.1O7.95,"{'Ba': 2.0, 'Ca': 1.0, 'Cu': 1.98, 'F': 0.1, 'Fe': 0.02, 'O': 7.95, 'Tl': 2.0}",110.0,110.0,0.0,1,Tl2 Ba2 Ca1 Cu1.98 Fe0.02 F0.1 O7.95
4517,[11857],Tl2Ba2Ca1Cu1.98Fe0.02F0.2O7.9,Tl2Ba2Ca1Cu1.98Fe0.02F0.2O7.9,"{'Ba': 2.0, 'Ca': 1.0, 'Cu': 1.98, 'F': 0.2, 'Fe': 0.02, 'O': 7.9, 'Tl': 2.0}",109.0,109.0,0.0,1,Tl2 Ba2 Ca1 Cu1.98 Fe0.02 F0.2 O7.9
4518,[11858],Tl2Ba2Ca1Cu1.98Fe0.02F0.3O7.85,Tl2Ba2Ca1Cu1.98Fe0.02F0.3O7.85,"{'Ba': 2.0, 'Ca': 1.0, 'Cu': 1.98, 'F': 0.30000000000000004, 'Fe': 0.02, 'O': 7.85, 'Tl': 2.0}",101.0,101.0,0.0,1,Tl2 Ba2 Ca1 Cu1.98 Fe0.02 F0.3 O7.85
4519,[11855],Tl2Ba2Ca1Cu1.98Fe0.02O8,Tl2Ba2Ca1Cu1.98Fe0.02O8,"{'Ba': 2.0, 'Ca': 1.0, 'Cu': 1.98, 'Fe': 0.02, 'O': 8.0, 'Tl': 2.0}",106.0,106.0,0.0,1,Tl2 Ba2 Ca1 Cu1.98 Fe0.02 O8
4520,[5864],Hg1Ba2Ca1Cu2FO6+z,Hg1Ba2Ca1Cu2FO6,"{'Ba': 2.0, 'Ca': 1.0, 'Cu': 2.0, 'F': 1.0, 'Hg': 1.0, 'O': 6.0}",128.0,128.0,0.0,1,Hg1 Ba2 Ca1 Cu2 F1 O6
4521,[10129],Ba2Ca1Cu2F1.3O4.2+z,Ba2Ca1Cu2F1.3O4.2,"{'Ba': 2.0, 'Ca': 1.0, 'Cu': 2.0, 'F': 1.3, 'O': 4.2}",90.0,90.0,0.0,1,Ba2 Ca1 Cu2 F1.3 O4.2
4522,[21177],Ba2Ca1Cu2F1.4O4.6,Ba2Ca1Cu2F1.4O4.6,"{'Ba': 2.0, 'Ca': 1.0, 'Cu': 2.0, 'F': 1.4, 'O': 4.6}",106.0,106.0,0.0,1,Ba2 Ca1 Cu2 F1.4 O4.6
4523,[21178],Ba2Ca1Cu2F1.6O4.4,Ba2Ca1Cu2F1.6O4.4,"{'Ba': 2.0, 'Ca': 1.0, 'Cu': 2.0, 'F': 1.6, 'O': 4.4}",108.0,108.0,0.0,1,Ba2 Ca1 Cu2 F1.6 O4.4
4524,[21179],Ba2Ca1Cu2F1.8O4.2,Ba2Ca1Cu2F1.8O4.2,"{'Ba': 2.0, 'Ca': 1.0, 'Cu': 2.0, 'F': 1.8, 'O': 4.2}",87.0,87.0,0.0,1,Ba2 Ca1 Cu2 F1.8 O4.2
4525,[21180],Ba2Ca1Cu2F2O4,Ba2Ca1Cu2F2O4,"{'Ba': 2.0, 'Ca': 1.0, 'Cu': 2.0, 'F': 2.0, 'O': 4.0}",82.0,82.0,0.0,1,Ba2 Ca1 Cu2 F2 O4
4526,[21181],Ba2Ca1Cu2F2.2O3.8,Ba2Ca1Cu2F2.2O3.8,"{'Ba': 2.0, 'Ca': 1.0, 'Cu': 2.0, 'F': 2.2, 'O': 3.8}",40.0,40.0,0.0,1,Ba2 Ca1 Cu2 F2.2 O3.8
4527,[9277],Hg0.8Ge0.2Ba2Ca1Cu2O6.2,Hg0.8Ge0.2Ba2Ca1Cu2O6.2,"{'Ba': 2.0, 'Ca': 1.0, 'Cu': 2.0, 'Ge': 0.2, 'Hg': 0.8, 'O': 6.2}",124.0,124.0,0.0,1,Hg0.8 Ge0.2 Ba2 Ca1 Cu2 O6.2
4528,[8364],Hg0.5Tl1.5Ba2Ca1Cu2O8-z,Hg0.5Tl1.5Ba2Ca1Cu2O8,"{'Ba': 2.0, 'Ca': 1.0, 'Cu': 2.0, 'Hg': 0.5, 'O': 8.0, 'Tl': 1.5}",80.0,80.0,0.0,1,Hg0.5 Tl1.5 Ba2 Ca1 Cu2 O8
4529,[3567],Hg0.67Tl1.33Ba2Ca1Cu2O8+z,Hg0.67Tl1.33Ba2Ca1Cu2O8,"{'Ba': 2.0, 'Ca': 1.0, 'Cu': 2.0, 'Hg': 0.67, 'O': 8.0, 'Tl': 1.33}",100.0,100.0,0.0,1,Hg0.67 Tl1.33 Ba2 Ca1 Cu2 O8
4530,[9276],Hg0.8Mn0.2Ba2Ca1Cu2O6.2,Hg0.8Mn0.2Ba2Ca1Cu2O6.2,"{'Ba': 2.0, 'Ca': 1.0, 'Cu': 2.0, 'Hg': 0.8, 'Mn': 0.2, 'O': 6.2}",114.0,114.0,0.0,1,Hg0.8 Mn0.2 Ba2 Ca1 Cu2 O6.2
4531,[4104],Hg0.8Mo0.2Ba2Ca1Cu2O6.4,Hg0.8Mo0.2Ba2Ca1Cu2O6.4,"{'Ba': 2.0, 'Ca': 1.0, 'Cu': 2.0, 'Hg': 0.8, 'Mo': 0.2, 'O': 6.4}",127.0,127.0,0.0,1,Hg0.8 Mo0.2 Ba2 Ca1 Cu2 O6.4
4532,[10785],Hg0.8Tl0.2Ba2Ca1Cu2O6+z,Hg0.8Tl0.2Ba2Ca1Cu2O6,"{'Ba': 2.0, 'Ca': 1.0, 'Cu': 2.0, 'Hg': 0.8, 'O': 6.0, 'Tl': 0.2}",124.0,124.0,0.0,1,Hg0.8 Tl0.2 Ba2 Ca1 Cu2 O6
4533,[4107],Hg0.8Ti0.2Ba2Ca1Cu2O6.2,Hg0.8Ti0.2Ba2Ca1Cu2O6.2,"{'Ba': 2.0, 'Ca': 1.0, 'Cu': 2.0, 'Hg': 0.8, 'O': 6.2, 'Ti': 0.2}",127.0,127.0,0.0,1,Hg0.8 Ti0.2 Ba2 Ca1 Cu2 O6.2
4534,"[4070, 4071, 4102, 4103]",Hg0.8V0.2Ba2Ca1Cu2O6.3,Hg0.8V0.2Ba2Ca1Cu2O6.3,"{'Ba': 2.0, 'Ca': 1.0, 'Cu': 2.0, 'Hg': 0.8, 'O': 6.3, 'V': 0.2}",128.0,121.75,5.0682837332,4,Hg0.8 V0.2 Ba2 Ca1 Cu2 O6.3
4535,[4105],Hg0.8W0.2Ba2Ca1Cu2O6.4,Hg0.8W0.2Ba2Ca1Cu2O6.4,"{'Ba': 2.0, 'Ca': 1.0, 'Cu': 2.0, 'Hg': 0.8, 'O': 6.4, 'W': 0.2}",118.0,118.0,0.0,1,Hg0.8 W0.2 Ba2 Ca1 Cu2 O6.4
4536,[6043],Hg0.9Re0.1Ba2Ca1Cu2O6+z,Hg0.9Re0.1Ba2Ca1Cu2O6,"{'Ba': 2.0, 'Ca': 1.0, 'Cu': 2.0, 'Hg': 0.9, 'O': 6.0, 'Re': 0.1}",120.0,120.0,0.0,1,Hg0.9 Re0.1 Ba2 Ca1 Cu2 O6
4537,[4106],Hg0.9W0.1Ba2Ca1Cu2O6.2,Hg0.9W0.1Ba2Ca1Cu2O6.2,"{'Ba': 2.0, 'Ca': 1.0, 'Cu': 2.0, 'Hg': 0.9, 'O': 6.2, 'W': 0.1}",118.0,118.0,0.0,1,Hg0.9 W0.1 Ba2 Ca1 Cu2 O6.2
4538,"[3367, 3368, 3407, 3441, 3790, 3907, 4100, 4101, 4110, 4111, 5418, 5860, 6795, 7767, 7786, 7787, 8797, 9023, 9024, 9025, 10784]",Hg1Ba2Ca1Cu2O6+z,Hg1Ba2Ca1Cu2O6,"{'Ba': 2.0, 'Ca': 1.0, 'Cu': 2.0, 'Hg': 1.0, 'O': 6.0}",134.0,120.8619047619,8.7809575457,21,Hg1 Ba2 Ca1 Cu2 O6
4539,[3690],Hg1Ba2Ca1Cu2O6.08,Hg1Ba2Ca1Cu2O6.08,"{'Ba': 2.0, 'Ca': 1.0, 'Cu': 2.0, 'Hg': 1.0, 'O': 6.08}",92.0,92.0,0.0,1,Hg1 Ba2 Ca1 Cu2 O6.08
4540,"[8697, 8698]",Hg1Ba2Ca1Cu2O6.1,Hg1Ba2Ca1Cu2O6.1,"{'Ba': 2.0, 'Ca': 1.0, 'Cu': 2.0, 'Hg': 1.0, 'O': 6.1}",93.0,92.5,0.5,2,Hg1 Ba2 Ca1 Cu2 O6.1
4541,[8699],Hg1Ba2Ca1Cu2O6.13,Hg1Ba2Ca1Cu2O6.13,"{'Ba': 2.0, 'Ca': 1.0, 'Cu': 2.0, 'Hg': 1.0, 'O': 6.13}",102.0,102.0,0.0,1,Hg1 Ba2 Ca1 Cu2 O6.13
4542,[8700],Hg1Ba2Ca1Cu2O6.14,Hg1Ba2Ca1Cu2O6.14,"{'Ba': 2.0, 'Ca': 1.0, 'Cu': 2.0, 'Hg': 1.0, 'O': 6.14}",105.0,105.0,0.0,1,Hg1 Ba2 Ca1 Cu2 O6.14
4543,[8701],Hg1Ba2Ca1Cu2O6.16,Hg1Ba2Ca1Cu2O6.16,"{'Ba': 2.0, 'Ca': 1.0, 'Cu': 2.0, 'Hg': 1.0, 'O': 6.16}",121.0,121.0,0.0,1,Hg1 Ba2 Ca1 Cu2 O6.16
4544,[8702],Hg1Ba2Ca1Cu2O6.19,Hg1Ba2Ca1Cu2O6.19,"{'Ba': 2.0, 'Ca': 1.0, 'Cu': 2.0, 'Hg': 1.0, 'O': 6.19}",122.0,122.0,0.0,1,Hg1 Ba2 Ca1 Cu2 O6.19
4545,[8703],Hg1Ba2Ca1Cu2O6.21,Hg1Ba2Ca1Cu2O6.21,"{'Ba': 2.0, 'Ca': 1.0, 'Cu': 2.0, 'Hg': 1.0, 'O': 6.21}",127.0,127.0,0.0,1,Hg1 Ba2 Ca1 Cu2 O6.21
4546,[3850],Hg1Ba2Ca1Cu2O6.22,Hg1Ba2Ca1Cu2O6.22,"{'Ba': 2.0, 'Ca': 1.0, 'Cu': 2.0, 'Hg': 1.0, 'O': 6.22}",127.0,127.0,0.0,1,Hg1 Ba2 Ca1 Cu2 O6.22
4547,"[3689, 8704, 8705]",Hg1Ba2Ca1Cu2O6.24,Hg1Ba2Ca1Cu2O6.24,"{'Ba': 2.0, 'Ca': 1.0, 'Cu': 2.0, 'Hg': 1.0, 'O': 6.24}",126.0,123.0,2.1602468995,3,Hg1 Ba2 Ca1 Cu2 O6.24
4548,[8706],Hg1Ba2Ca1Cu2O6.27,Hg1Ba2Ca1Cu2O6.27,"{'Ba': 2.0, 'Ca': 1.0, 'Cu': 2.0, 'Hg': 1.0, 'O': 6.27}",110.0,110.0,0.0,1,Hg1 Ba2 Ca1 Cu2 O6.27
4549,"[8707, 8708]",Hg1Ba2Ca1Cu2O6.3,Hg1Ba2Ca1Cu2O6.3,"{'Ba': 2.0, 'Ca': 1.0, 'Cu': 2.0, 'Hg': 1.0, 'O': 6.3}",100.0,100.0,0.0,2,Hg1 Ba2 Ca1 Cu2 O6.3
4550,[8709],Hg1Ba2Ca1Cu2O6.31,Hg1Ba2Ca1Cu2O6.31,"{'Ba': 2.0, 'Ca': 1.0, 'Cu': 2.0, 'Hg': 1.0, 'O': 6.31}",98.0,98.0,0.0,1,Hg1 Ba2 Ca1 Cu2 O6.31
4551,"[8337, 8363]",Hg1Tl1Ba2Ca1Cu2O8,Hg1Tl1Ba2Ca1Cu2O8,"{'Ba': 2.0, 'Ca': 1.0, 'Cu': 2.0, 'Hg': 1.0, 'O': 8.0, 'Tl': 1.0}",53.0,44.0,9.0,2,Hg1 Tl1 Ba2 Ca1 Cu2 O8
4552,"[10137, 10166, 10167]",Hg1.5Pb0.5Ba2Ca1Cu2O8-z,Hg1.5Pb0.5Ba2Ca1Cu2O8,"{'Ba': 2.0, 'Ca': 1.0, 'Cu': 2.0, 'Hg': 1.5, 'O': 8.0, 'Pb': 0.5}",60.0,52.7666666667,7.1676743478,3,Hg1.5 Pb0.5 Ba2 Ca1 Cu2 O8
4553,[20789],Tl0.25Li0.25Ba2Ca1Mg1Cu2Ni1.5O10-z,Tl0.25Li0.25Ba2Ca1Mg1Cu2Ni1.5O10,"{'Ba': 2.0, 'Ca': 1.0, 'Cu': 2.0, 'Li': 0.25, 'Mg': 1.0, 'Ni': 1.5, 'O': 10.0, 'Tl': 0.25}",105.0,105.0,0.0,1,Tl0.25 Li0.25 Ba2 Ca1 Mg1 Cu2 Ni1.5 O10
4554,"[20793, 20799]",Tl0.5Ba2Ca1Mg1Cu2Ni1.5O10-z,Tl0.5Ba2Ca1Mg1Cu2Ni1.5O10,"{'Ba': 2.0, 'Ca': 1.0, 'Cu': 2.0, 'Mg': 1.0, 'Ni': 1.5, 'O': 10.0, 'Tl': 0.5}",102.5,101.15,1.35,2,Tl0.5 Ba2 Ca1 Mg1 Cu2 Ni1.5 O10
4555,"[1447, 1657, 9021, 9022]",Tl1Ba2Ca1Cu2O7,Tl1Ba2Ca1Cu2O7,"{'Ba': 2.0, 'Ca': 1.0, 'Cu': 2.0, 'O': 7.0, 'Tl': 1.0}",93.0,86.65,5.8879113444,4,Tl1 Ba2 Ca1 Cu2 O7
4556,[3102],Tl2Ba2Ca1Cu2O7,Tl2Ba2Ca1Cu2O7,"{'Ba': 2.0, 'Ca': 1.0, 'Cu': 2.0, 'O': 7.0, 'Tl': 2.0}",108.0,108.0,0.0,1,Tl2 Ba2 Ca1 Cu2 O7
4557,"[1073, 1105]",Tl2Ba2Ca1Cu2O7.833,Tl2Ba2Ca1Cu2O7.833,"{'Ba': 2.0, 'Ca': 1.0, 'Cu': 2.0, 'O': 7.833, 'Tl': 2.0}",112.0,112.0,0.0,2,Tl2 Ba2 Ca1 Cu2 O7.833
4558,"[1072, 1104]",Tl2Ba2Ca1Cu2O7.876,Tl2Ba2Ca1Cu2O7.876,"{'Ba': 2.0, 'Ca': 1.0, 'Cu': 2.0, 'O': 7.876, 'Tl': 2.0}",110.0,110.0,0.0,2,Tl2 Ba2 Ca1 Cu2 O7.876
4559,"[1078, 1103]",Tl2Ba2Ca1Cu2O7.946,Tl2Ba2Ca1Cu2O7.946,"{'Ba': 2.0, 'Ca': 1.0, 'Cu': 2.0, 'O': 7.946, 'Tl': 2.0}",107.0,107.0,0.0,2,Tl2 Ba2 Ca1 Cu2 O7.946
4560,"[1077, 1102]",Tl2Ba2Ca1Cu2O7.958,Tl2Ba2Ca1Cu2O7.958,"{'Ba': 2.0, 'Ca': 1.0, 'Cu': 2.0, 'O': 7.958, 'Tl': 2.0}",107.0,107.0,0.0,2,Tl2 Ba2 Ca1 Cu2 O7.958
4561,"[1076, 1101]",Tl2Ba2Ca1Cu2O7.978,Tl2Ba2Ca1Cu2O7.978,"{'Ba': 2.0, 'Ca': 1.0, 'Cu': 2.0, 'O': 7.978, 'Tl': 2.0}",95.0,95.0,0.0,2,Tl2 Ba2 Ca1 Cu2 O7.978
4562,"[1075, 1100]",Tl2Ba2Ca1Cu2O7.984,Tl2Ba2Ca1Cu2O7.984,"{'Ba': 2.0, 'Ca': 1.0, 'Cu': 2.0, 'O': 7.984, 'Tl': 2.0}",92.0,91.0,1.0,2,Tl2 Ba2 Ca1 Cu2 O7.984
4563,"[2301, 2302, 4568]",Tl1Ba2Ca1Cu2O8,Tl1Ba2Ca1Cu2O8,"{'Ba': 2.0, 'Ca': 1.0, 'Cu': 2.0, 'O': 8.0, 'Tl': 1.0}",107.995,105.9816666667,1.4237879836,3,Tl1 Ba2 Ca1 Cu2 O8
4564,"[1074, 1114, 1167, 1733, 2099, 2399, 2400, 2401, 2402, 2745, 3459, 3475, 3837, 3838, 4567, 5572, 5624, 7130, 8161, 8673, 10472, 10674]",Tl2Ba2Ca1Cu2O8,Tl2Ba2Ca1Cu2O8,"{'Ba': 2.0, 'Ca': 1.0, 'Cu': 2.0, 'O': 8.0, 'Tl': 2.0}",114.1,104.2454545455,7.9734062114,22,Tl2 Ba2 Ca1 Cu2 O8
4565,[4000],Hg0.5Tl0.5Ba2CaSrCu3O8+z,Hg0.5Tl0.5Ba2CaSrCu3O8,"{'Ba': 2.0, 'Ca': 1.0, 'Cu': 3.0, 'Hg': 0.5, 'O': 8.0, 'Sr': 1.0, 'Tl': 0.5}",132.0,132.0,0.0,1,Hg0.5 Tl0.5 Ba2 Ca1 Sr1 Cu3 O8
4566,[3999],Hg1Ba2CaSrCu3O8+z,Hg1Ba2CaSrCu3O8,"{'Ba': 2.0, 'Ca': 1.0, 'Cu': 3.0, 'Hg': 1.0, 'O': 8.0, 'Sr': 1.0}",132.0,132.0,0.0,1,Hg1 Ba2 Ca1 Sr1 Cu3 O8
4567,[4062],Y1CaBa2Cu3NiO6.89,Y1CaBa2Cu3NiO6.89,"{'Ba': 2.0, 'Ca': 1.0, 'Cu': 3.0, 'Ni': 1.0, 'O': 6.89, 'Y': 1.0}",91.0,91.0,0.0,1,Y1 Ca1 Ba2 Cu3 Ni1 O6.89
4568,[20466],Tl0.5Ba2Ca1Mg1Cu3.5O10-z,Tl0.5Ba2Ca1Mg1Cu3.5O10,"{'Ba': 2.0, 'Ca': 1.0, 'Cu': 3.5, 'Mg': 1.0, 'O': 10.0, 'Tl': 0.5}",96.5,96.5,0.0,1,Tl0.5 Ba2 Ca1 Mg1 Cu3.5 O10
4569,[10783],La1.5Nd0.5Ca1Ba2Cu4.5Mo0.5O11.119,La1.5Nd0.5Ca1Ba2Cu4.5Mo0.5O11.119,"{'Ba': 2.0, 'Ca': 1.0, 'Cu': 4.5, 'La': 1.5, 'Mo': 0.5, 'Nd': 0.5, 'O': 11.119}",50.0,50.0,0.0,1,La1.5 Nd0.5 Ca1 Ba2 Cu4.5 Mo0.5 O11.119
4570,[10782],La1.5Nd0.5Ca1Ba2Cu4.75Mo0.25O11.143,La1.5Nd0.5Ca1Ba2Cu4.75Mo0.25O11.143,"{'Ba': 2.0, 'Ca': 1.0, 'Cu': 4.75, 'La': 1.5, 'Mo': 0.25, 'Nd': 0.5, 'O': 11.143}",70.0,70.0,0.0,1,La1.5 Nd0.5 Ca1 Ba2 Cu4.75 Mo0.25 O11.143
4571,[10781],La1.5Nd0.5Ca1Ba2Cu4.85Mo0.15O11.322,La1.5Nd0.5Ca1Ba2Cu4.85Mo0.15O11.322,"{'Ba': 2.0, 'Ca': 1.0, 'Cu': 4.85, 'La': 1.5, 'Mo': 0.15, 'Nd': 0.5, 'O': 11.322}",70.0,70.0,0.0,1,La1.5 Nd0.5 Ca1 Ba2 Cu4.85 Mo0.15 O11.322
4572,[10780],La1.5Nd0.5Ca1Ba2Cu4.95Mo0.05O11.345,La1.5Nd0.5Ca1Ba2Cu4.95Mo0.05O11.345,"{'Ba': 2.0, 'Ca': 1.0, 'Cu': 4.95, 'La': 1.5, 'Mo': 0.05, 'Nd': 0.5, 'O': 11.345}",76.0,76.0,0.0,1,La1.5 Nd0.5 Ca1 Ba2 Cu4.95 Mo0.05 O11.345
4573,[7367],La1.5Er0.5Ba2Ca1Cu5O11.907,La1.5Er0.5Ba2Ca1Cu5O11.907,"{'Ba': 2.0, 'Ca': 1.0, 'Cu': 5.0, 'Er': 0.5, 'La': 1.5, 'O': 11.907}",78.0,78.0,0.0,1,La1.5 Er0.5 Ba2 Ca1 Cu5 O11.907
4574,[7414],La1.5Gd0.5Ca1Ba2Cu5O10+z,La1.5Gd0.5Ca1Ba2Cu5O10,"{'Ba': 2.0, 'Ca': 1.0, 'Cu': 5.0, 'Gd': 0.5, 'La': 1.5, 'O': 10.0}",80.0,80.0,0.0,1,La1.5 Gd0.5 Ca1 Ba2 Cu5 O10
4575,[7373],La1.5Gd0.5Ba2Ca1Cu5O11.892,La1.5Gd0.5Ba2Ca1Cu5O11.892,"{'Ba': 2.0, 'Ca': 1.0, 'Cu': 5.0, 'Gd': 0.5, 'La': 1.5, 'O': 11.892}",79.0,79.0,0.0,1,La1.5 Gd0.5 Ba2 Ca1 Cu5 O11.892
4576,[10055],La1.5Nd0.5Ba2Ca1Cu5O7.123,La1.5Nd0.5Ba2Ca1Cu5O7.123,"{'Ba': 2.0, 'Ca': 1.0, 'Cu': 5.0, 'La': 1.5, 'Nd': 0.5, 'O': 7.123}",78.0,78.0,0.0,1,La1.5 Nd0.5 Ba2 Ca1 Cu5 O7.123
4577,[10779],La1.5Nd0.5Ca1Ba2Cu5O11.583,La1.5Nd0.5Ca1Ba2Cu5O11.583,"{'Ba': 2.0, 'Ca': 1.0, 'Cu': 5.0, 'La': 1.5, 'Nd': 0.5, 'O': 11.583}",79.0,79.0,0.0,1,La1.5 Nd0.5 Ca1 Ba2 Cu5 O11.583
4578,[7410],La1.5Nd0.5Ca1Ba2Cu5O11.872,La1.5Nd0.5Ca1Ba2Cu5O11.872,"{'Ba': 2.0, 'Ca': 1.0, 'Cu': 5.0, 'La': 1.5, 'Nd': 0.5, 'O': 11.872}",78.0,78.0,0.0,1,La1.5 Nd0.5 Ca1 Ba2 Cu5 O11.872
4579,[10950],La1.5Pr0.5Ca1Ba2Cu5O11.782,La1.5Pr0.5Ca1Ba2Cu5O11.782,"{'Ba': 2.0, 'Ca': 1.0, 'Cu': 5.0, 'La': 1.5, 'O': 11.782, 'Pr': 0.5}",57.7,57.7,0.0,1,La1.5 Pr0.5 Ca1 Ba2 Cu5 O11.782
4580,[11404],Cu0.5Tl0.5Ba2Ca1.2Mg0.8Cu3O10-z,Cu0.5Tl0.5Ba2Ca1.2Mg0.8Cu3O10,"{'Ba': 2.0, 'Ca': 1.2, 'Cu': 3.5, 'Mg': 0.8, 'O': 10.0, 'Tl': 0.5}",117.0,117.0,0.0,1,Cu3.5 Tl0.5 Ba2 Ca1.2 Mg0.8 O10
4581,[8079],Tl1.63Ba2Ca1.3Cu2O7.94,Tl1.63Ba2Ca1.3Cu2O7.94,"{'Ba': 2.0, 'Ca': 1.3, 'Cu': 2.0, 'O': 7.94, 'Tl': 1.63}",91.0,91.0,0.0,1,Tl1.63 Ba2 Ca1.3 Cu2 O7.94
4582,[20292],Tl0.5Ba2Ca1.5Mg0.5Cu1Zn2.5O10-z,Tl0.5Ba2Ca1.5Mg0.5Cu1Zn2.5O10,"{'Ba': 2.0, 'Ca': 1.5, 'Cu': 1.0, 'Mg': 0.5, 'O': 10.0, 'Tl': 0.5, 'Zn': 2.5}",100.0,100.0,0.0,1,Tl0.5 Ba2 Ca1.5 Mg0.5 Cu1 Zn2.5 O10
4583,[20788],Tl0.25Li0.25Ba2Ca1.5Mg0.5Cu2Ni1.5O10-z,Tl0.25Li0.25Ba2Ca1.5Mg0.5Cu2Ni1.5O10,"{'Ba': 2.0, 'Ca': 1.5, 'Cu': 2.0, 'Li': 0.25, 'Mg': 0.5, 'Ni': 1.5, 'O': 10.0, 'Tl': 0.25}",107.0,107.0,0.0,1,Tl0.25 Li0.25 Ba2 Ca1.5 Mg0.5 Cu2 Ni1.5 O10
4584,"[20792, 20798]",Tl0.5Ba2Ca1.5Mg0.5Cu2Ni1.5O10-z,Tl0.5Ba2Ca1.5Mg0.5Cu2Ni1.5O10,"{'Ba': 2.0, 'Ca': 1.5, 'Cu': 2.0, 'Mg': 0.5, 'Ni': 1.5, 'O': 10.0, 'Tl': 0.5}",101.0,100.35,0.65,2,Tl0.5 Ba2 Ca1.5 Mg0.5 Cu2 Ni1.5 O10
4585,[20465],Tl0.5Ba2Ca1.5Mg0.5Cu3.5O10-z,Tl0.5Ba2Ca1.5Mg0.5Cu3.5O10,"{'Ba': 2.0, 'Ca': 1.5, 'Cu': 3.5, 'Mg': 0.5, 'O': 10.0, 'Tl': 0.5}",96.5,96.5,0.0,1,Tl0.5 Ba2 Ca1.5 Mg0.5 Cu3.5 O10
4586,[20308],Tl1Ba2Ca1.6Na0.4Cu3O9-z,Tl1Ba2Ca1.6Na0.4Cu3O9,"{'Ba': 2.0, 'Ca': 1.6, 'Cu': 3.0, 'Na': 0.4, 'O': 9.0, 'Tl': 1.0}",99.3,99.3,0.0,1,Tl1 Ba2 Ca1.6 Na0.4 Cu3 O9
4587,[11403],Cu0.5Tl0.5Ba2Ca1.6Mg0.4Cu3O10-z,Cu0.5Tl0.5Ba2Ca1.6Mg0.4Cu3O10,"{'Ba': 2.0, 'Ca': 1.6, 'Cu': 3.5, 'Mg': 0.4, 'O': 10.0, 'Tl': 0.5}",115.0,115.0,0.0,1,Cu3.5 Tl0.5 Ba2 Ca1.6 Mg0.4 O10
4588,[11408],Cu0.5Tl0.5Ba2Ca1.6Pr0.4Cu3O10-z,Cu0.5Tl0.5Ba2Ca1.6Pr0.4Cu3O10,"{'Ba': 2.0, 'Ca': 1.6, 'Cu': 3.5, 'O': 10.0, 'Pr': 0.4, 'Tl': 0.5}",80.0,80.0,0.0,1,Cu3.5 Tl0.5 Ba2 Ca1.6 Pr0.4 O10
4589,[20307],Tl1Ba2Ca1.7Na0.3Cu3O9-z,Tl1Ba2Ca1.7Na0.3Cu3O9,"{'Ba': 2.0, 'Ca': 1.7000000000000002, 'Cu': 3.0, 'Na': 0.30000000000000004, 'O': 9.0, 'Tl': 1.0}",100.31,100.31,0.0,1,Tl1 Ba2 Ca1.7 Na0.3 Cu3 O9
4590,[4036],Hg0.25Tl0.75Ba2Ca1.72Sr0.28Cu3O8+z,Hg0.25Tl0.75Ba2Ca1.72Sr0.28Cu3O8,"{'Ba': 2.0, 'Ca': 1.72, 'Cu': 3.0, 'Hg': 0.25, 'O': 8.0, 'Sr': 0.28, 'Tl': 0.75}",122.0,122.0,0.0,1,Hg0.25 Tl0.75 Ba2 Ca1.72 Sr0.28 Cu3 O8
4591,"[4035, 9469]",Hg0.5Tl0.5Ba2Ca1.72Sr0.28Cu3O8+z,Hg0.5Tl0.5Ba2Ca1.72Sr0.28Cu3O8,"{'Ba': 2.0, 'Ca': 1.72, 'Cu': 3.0, 'Hg': 0.5, 'O': 8.0, 'Sr': 0.28, 'Tl': 0.5}",128.0,126.0,2.0,2,Hg0.5 Tl0.5 Ba2 Ca1.72 Sr0.28 Cu3 O8
4592,[4034],Hg0.75Tl0.25Ba2Ca1.72Sr0.28Cu3O8+z,Hg0.75Tl0.25Ba2Ca1.72Sr0.28Cu3O8,"{'Ba': 2.0, 'Ca': 1.72, 'Cu': 3.0, 'Hg': 0.75, 'O': 8.0, 'Sr': 0.28, 'Tl': 0.25}",128.0,128.0,0.0,1,Hg0.75 Tl0.25 Ba2 Ca1.72 Sr0.28 Cu3 O8
4593,[9468],Hg1Ba2Ca1.72Sr0.28Cu3O8+d,Hg1Ba2Ca1.72Sr0.28Cu3O8,"{'Ba': 2.0, 'Ca': 1.72, 'Cu': 3.0, 'Hg': 1.0, 'O': 8.0, 'Sr': 0.28}",126.0,126.0,0.0,1,Hg1 Ba2 Ca1.72 Sr0.28 Cu3 O8
4594,"[7884, 7890]",Hg1Ba2Ca1.73Pb0.17Cu2.86O8+d,Hg1Ba2Ca1.73Pb0.17Cu2.86O8,"{'Ba': 2.0, 'Ca': 1.73, 'Cu': 2.86, 'Hg': 1.0, 'O': 8.0, 'Pb': 0.17}",133.0,132.25,0.75,2,Hg1 Ba2 Ca1.73 Pb0.17 Cu2.86 O8
4595,[20306],Tl1Ba2Ca1.8Na0.2Cu3O9-z,Tl1Ba2Ca1.8Na0.2Cu3O9,"{'Ba': 2.0, 'Ca': 1.8, 'Cu': 3.0, 'Na': 0.2, 'O': 9.0, 'Tl': 1.0}",103.03,103.03,0.0,1,Tl1 Ba2 Ca1.8 Na0.2 Cu3 O9
4596,[11407],Cu0.5Tl0.5Ba2Ca1.8Pr0.2Cu3O10-z,Cu0.5Tl0.5Ba2Ca1.8Pr0.2Cu3O10,"{'Ba': 2.0, 'Ca': 1.8, 'Cu': 3.5, 'O': 10.0, 'Pr': 0.2, 'Tl': 0.5}",100.0,100.0,0.0,1,Cu3.5 Tl0.5 Ba2 Ca1.8 Pr0.2 O10
4597,[22394],Tl0.8Hg0.2Ba2Ca1.85Sm0.15Cu3O9-z,Tl0.8Hg0.2Ba2Ca1.85Sm0.15Cu3O9,"{'Ba': 2.0, 'Ca': 1.85, 'Cu': 3.0, 'Hg': 0.2, 'O': 9.0, 'Sm': 0.15, 'Tl': 0.8}",90.5,90.5,0.0,1,Tl0.8 Hg0.2 Ba2 Ca1.85 Sm0.15 Cu3 O9
4598,[22398],Tl0.8Hg0.2Ba2Ca1.85Yb0.15Cu3O9-z,Tl0.8Hg0.2Ba2Ca1.85Yb0.15Cu3O9,"{'Ba': 2.0, 'Ca': 1.85, 'Cu': 3.0, 'Hg': 0.2, 'O': 9.0, 'Tl': 0.8, 'Yb': 0.15}",90.5,90.5,0.0,1,Tl0.8 Hg0.2 Ba2 Ca1.85 Yb0.15 Cu3 O9
4599,[20305],Tl1Ba2Ca1.85Na0.15Cu3O9-z,Tl1Ba2Ca1.85Na0.15Cu3O9,"{'Ba': 2.0, 'Ca': 1.85, 'Cu': 3.0, 'Na': 0.15, 'O': 9.0, 'Tl': 1.0}",105.51,105.51,0.0,1,Tl1 Ba2 Ca1.85 Na0.15 Cu3 O9
4600,[22393],Tl0.8Hg0.2Ba2Ca1.9Sm0.1Cu3O9-z,Tl0.8Hg0.2Ba2Ca1.9Sm0.1Cu3O9,"{'Ba': 2.0, 'Ca': 1.9, 'Cu': 3.0, 'Hg': 0.2, 'O': 9.0, 'Sm': 0.1, 'Tl': 0.8}",97.9,97.9,0.0,1,Tl0.8 Hg0.2 Ba2 Ca1.9 Sm0.1 Cu3 O9
4601,[22397],Tl0.8Hg0.2Ba2Ca1.9Yb0.1Cu3O9-z,Tl0.8Hg0.2Ba2Ca1.9Yb0.1Cu3O9,"{'Ba': 2.0, 'Ca': 1.9, 'Cu': 3.0, 'Hg': 0.2, 'O': 9.0, 'Tl': 0.8, 'Yb': 0.1}",105.7,105.7,0.0,1,Tl0.8 Hg0.2 Ba2 Ca1.9 Yb0.1 Cu3 O9
4602,[20304],Tl1Ba2Ca1.9Na0.1Cu3O9-z,Tl1Ba2Ca1.9Na0.1Cu3O9,"{'Ba': 2.0, 'Ca': 1.9, 'Cu': 3.0, 'Na': 0.1, 'O': 9.0, 'Tl': 1.0}",106.01,106.01,0.0,1,Tl1 Ba2 Ca1.9 Na0.1 Cu3 O9
4603,[11406],Cu0.5Tl0.5Ba2Ca1.9Pr0.1Cu3O10-z,Cu0.5Tl0.5Ba2Ca1.9Pr0.1Cu3O10,"{'Ba': 2.0, 'Ca': 1.9, 'Cu': 3.5, 'O': 10.0, 'Pr': 0.1, 'Tl': 0.5}",110.5,110.5,0.0,1,Cu3.5 Tl0.5 Ba2 Ca1.9 Pr0.1 O10
4604,[22392],Tl0.8Hg0.2Ba2Ca1.95Sm0.05Cu3O9-z,Tl0.8Hg0.2Ba2Ca1.95Sm0.05Cu3O9,"{'Ba': 2.0, 'Ca': 1.9500000000000002, 'Cu': 3.0, 'Hg': 0.2, 'O': 9.0, 'Sm': 0.05, 'Tl': 0.8}",114.1,114.1,0.0,1,Tl0.8 Hg0.2 Ba2 Ca1.95 Sm0.05 Cu3 O9
4605,[22396],Tl0.8Hg0.2Ba2Ca1.95Yb0.05Cu3O9-z,Tl0.8Hg0.2Ba2Ca1.95Yb0.05Cu3O9,"{'Ba': 2.0, 'Ca': 1.9500000000000002, 'Cu': 3.0, 'Hg': 0.2, 'O': 9.0, 'Tl': 0.8, 'Yb': 0.05}",112.2,112.2,0.0,1,Tl0.8 Hg0.2 Ba2 Ca1.95 Yb0.05 Cu3 O9
4606,[22391],Tl0.8Hg0.2Ba2Ca1.975Sm0.025Cu3O9-z,Tl0.8Hg0.2Ba2Ca1.975Sm0.025Cu3O9,"{'Ba': 2.0, 'Ca': 1.975, 'Cu': 3.0, 'Hg': 0.2, 'O': 9.0, 'Sm': 0.025, 'Tl': 0.8}",123.4,123.4,0.0,1,Tl0.8 Hg0.2 Ba2 Ca1.975 Sm0.025 Cu3 O9
4607,[22395],Tl0.8Hg0.2Ba2Ca1.975Yb0.025Cu3O9-z,Tl0.8Hg0.2Ba2Ca1.975Yb0.025Cu3O9,"{'Ba': 2.0, 'Ca': 1.975, 'Cu': 3.0, 'Hg': 0.2, 'O': 9.0, 'Tl': 0.8, 'Yb': 0.025}",124.5,124.5,0.0,1,Tl0.8 Hg0.2 Ba2 Ca1.975 Yb0.025 Cu3 O9
4608,[4450],Hg0.66Pb0.34Ba2Ca1.98Cu2.9O8.4,Hg0.66Pb0.34Ba2Ca1.98Cu2.9O8.4,"{'Ba': 2.0, 'Ca': 1.98, 'Cu': 2.9, 'Hg': 0.66, 'O': 8.4, 'Pb': 0.34}",143.0,143.0,0.0,1,Hg0.66 Pb0.34 Ba2 Ca1.98 Cu2.9 O8.4
4609,[21882],Tl0.5Ba2Ca2Cu3Cd0.5O10-z,Tl0.5Ba2Ca2Cu3Cd0.5O10,"{'Ba': 2.0, 'Ca': 2.0, 'Cd': 0.5, 'Cu': 3.0, 'O': 10.0, 'Tl': 0.5}",93.0,93.0,0.0,1,Tl0.5 Ba2 Ca2 Cu3 Cd0.5 O10
4610,[21883],Tl0.5Ba2Ca2Cu2.5Cd1O10-z,Tl0.5Ba2Ca2Cu2.5Cd1O10,"{'Ba': 2.0, 'Ca': 2.0, 'Cd': 1.0, 'Cu': 2.5, 'O': 10.0, 'Tl': 0.5}",94.5,94.5,0.0,1,Tl0.5 Ba2 Ca2 Cu2.5 Cd1 O10
4611,[21884],Tl0.5Ba2Ca2Cu2Cd1.5O10-z,Tl0.5Ba2Ca2Cu2Cd1.5O10,"{'Ba': 2.0, 'Ca': 2.0, 'Cd': 1.5, 'Cu': 2.0, 'O': 10.0, 'Tl': 0.5}",92.0,92.0,0.0,1,Tl0.5 Ba2 Ca2 Cu2 Cd1.5 O10