,sc_id,supercon_formula,cleaned_formula,material_dict,highest_Tc,average_Tc,std_Tc,entry_count,composition
1219,[25635],Na1Fe1Ni0.01As1,Na1Fe1Ni0.01As1,"{'As': 1.0, 'Fe': 1.0, 'Na': 1.0, 'Ni': 0.01}",17.8,17.8,0.0,1,Na1 Fe1 Ni0.01 As1
1220,[25636],Na1Fe1Ni0.013As1,Na1Fe1Ni0.013As1,"{'As': 1.0, 'Fe': 1.0, 'Na': 1.0, 'Ni': 0.013000000000000001}",17.7,17.7,0.0,1,Na1 Fe1 Ni0.013 As1
1221,[25637],Na1Fe1Ni0.015As1,Na1Fe1Ni0.015As1,"{'As': 1.0, 'Fe': 1.0, 'Na': 1.0, 'Ni': 0.015}",18.6,18.6,0.0,1,Na1 Fe1 Ni0.015 As1
1222,[22596],Nd0.8Sr0.2Fe1As1O1,Nd0.8Sr0.2Fe1As1O1,"{'As': 1.0, 'Fe': 1.0, 'Nd': 0.8, 'O': 1.0, 'Sr': 0.2}",13.5,13.5,0.0,1,Nd0.8 Sr0.2 Fe1 As1 O1
1223,[20765],Nd1Fe1As1O0.2,Nd1Fe1As1O0.2,"{'As': 1.0, 'Fe': 1.0, 'Nd': 1.0, 'O': 0.2}",54.0,54.0,0.0,1,Nd1 Fe1 As1 O0.2
1224,"[20764, 21070]",Nd1Fe1As1O0.6,Nd1Fe1As1O0.6,"{'As': 1.0, 'Fe': 1.0, 'Nd': 1.0, 'O': 0.6000000000000001}",54.0,53.5,0.5,2,Nd1 Fe1 As1 O0.6
1225,"[20931, 22039]",Nd1Fe1As1O0.7,Nd1Fe1As1O0.7,"{'As': 1.0, 'Fe': 1.0, 'Nd': 1.0, 'O': 0.7000000000000001}",53.7,53.7,0.0,2,Nd1 Fe1 As1 O0.7
1226,"[20558, 21069]",Nd1Fe1As1O0.85,Nd1Fe1As1O0.85,"{'As': 1.0, 'Fe': 1.0, 'Nd': 1.0, 'O': 0.85}",51.9,51.45,0.45,2,Nd1 Fe1 As1 O0.85
1227,[22745],Nd1Fe1As1O0.9,Nd1Fe1As1O0.9,"{'As': 1.0, 'Fe': 1.0, 'Nd': 1.0, 'O': 0.9}",46.9,46.9,0.0,1,Nd1 Fe1 As1 O0.9
1228,[20767],Pr1Fe1As1O0.6,Pr1Fe1As1O0.6,"{'As': 1.0, 'Fe': 1.0, 'O': 0.6000000000000001, 'Pr': 1.0}",44.0,44.0,0.0,1,Pr1 Fe1 As1 O0.6
1229,[21504],Sm1Fe1As1O0.67,Sm1Fe1As1O0.67,"{'As': 1.0, 'Fe': 1.0, 'O': 0.67, 'Sm': 1.0}",55.0,55.0,0.0,1,Sm1 Fe1 As1 O0.67
1230,"[20930, 21403, 22038]",Pr1Fe1As1O0.7,Pr1Fe1As1O0.7,"{'As': 1.0, 'Fe': 1.0, 'O': 0.7000000000000001, 'Pr': 1.0}",48.5,47.0,2.1213203436,3,Pr1 Fe1 As1 O0.7
1231,"[20932, 22040]",Sm1Fe1As1O0.7,Sm1Fe1As1O0.7,"{'As': 1.0, 'Fe': 1.0, 'O': 0.7000000000000001, 'Sm': 1.0}",52.1,52.1,0.0,2,Sm1 Fe1 As1 O0.7
1232,"[20934, 21254, 22042]",Tb1Fe1As1O0.7,Tb1Fe1As1O0.7,"{'As': 1.0, 'Fe': 1.0, 'O': 0.7000000000000001, 'Tb': 1.0}",52.2,39.7666666667,17.5833886255,3,Tb1 Fe1 As1 O0.7
1233,[21253],Tb1Fe1As1O0.75,Tb1Fe1As1O0.75,"{'As': 1.0, 'Fe': 1.0, 'O': 0.75, 'Tb': 1.0}",34.8,34.8,0.0,1,Tb1 Fe1 As1 O0.75
1234,[22026],Sm1Fe1As1O0.8,Sm1Fe1As1O0.8,"{'As': 1.0, 'Fe': 1.0, 'O': 0.8, 'Sm': 1.0}",40.1,40.1,0.0,1,Sm1 Fe1 As1 O0.8
1235,"[21252, 22746]",Tb1Fe1As1O0.8,Tb1Fe1As1O0.8,"{'As': 1.0, 'Fe': 1.0, 'O': 0.8, 'Tb': 1.0}",35.7,33.85,1.85,2,Tb1 Fe1 As1 O0.8
1236,[21251],Tb1Fe1As1O0.82,Tb1Fe1As1O0.82,"{'As': 1.0, 'Fe': 1.0, 'O': 0.8200000000000001, 'Tb': 1.0}",43.8,43.8,0.0,1,Tb1 Fe1 As1 O0.82
1237,[20559],Pr1Fe1As1O0.85,Pr1Fe1As1O0.85,"{'As': 1.0, 'Fe': 1.0, 'O': 0.85, 'Pr': 1.0}",48.2,48.2,0.0,1,Pr1 Fe1 As1 O0.85
1238,"[20557, 20641, 21059, 21068, 21314, 22005, 22023]",Sm1Fe1As1O0.85,Sm1Fe1As1O0.85,"{'As': 1.0, 'Fe': 1.0, 'O': 0.85, 'Sm': 1.0}",55.0,53.4857142857,1.6128312031,7,Sm1 Fe1 As1 O0.85
1239,"[21058, 21250]",Tb1Fe1As1O0.85,Tb1Fe1As1O0.85,"{'As': 1.0, 'Fe': 1.0, 'O': 0.85, 'Tb': 1.0}",46.8,44.4,2.4,2,Tb1 Fe1 As1 O0.85
1240,[21056],Y1Fe1As1O0.85,Y1Fe1As1O0.85,"{'As': 1.0, 'Fe': 1.0, 'O': 0.85, 'Y': 1.0}",45.2,45.2,0.0,1,Y1 Fe1 As1 O0.85
1241,[22744],Pr1Fe1As1O0.896,Pr1Fe1As1O0.896,"{'As': 1.0, 'Fe': 1.0, 'O': 0.896, 'Pr': 1.0}",44.4,44.4,0.0,1,Pr1 Fe1 As1 O0.896
1242,[21249],Tb1Fe1As1O0.9,Tb1Fe1As1O0.9,"{'As': 1.0, 'Fe': 1.0, 'O': 0.9, 'Tb': 1.0}",22.8,22.8,0.0,1,Tb1 Fe1 As1 O0.9
1243,[23374],Pr0.65Sr0.35Fe1As1O1,Pr0.65Sr0.35Fe1As1O1,"{'As': 1.0, 'Fe': 1.0, 'O': 1.0, 'Pr': 0.65, 'Sr': 0.35000000000000003}",16.5,16.5,0.0,1,Pr0.65 Sr0.35 Fe1 As1 O1
1244,"[21001, 21280]",Pr0.75Sr0.25Fe1As1O1,Pr0.75Sr0.25Fe1As1O1,"{'As': 1.0, 'Fe': 1.0, 'O': 1.0, 'Pr': 0.75, 'Sr': 0.25}",16.3,16.25,0.05,2,Pr0.75 Sr0.25 Fe1 As1 O1
1245,"[21573, 22127, 22507, 23512]",Pr0.8Sr0.2Fe1As1O1,Pr0.8Sr0.2Fe1As1O1,"{'As': 1.0, 'Fe': 1.0, 'O': 1.0, 'Pr': 0.8, 'Sr': 0.2}",15.8,14.6,0.8602325267,4,Pr0.8 Sr0.2 Fe1 As1 O1
1246,[21279],Pr0.85Sr0.15Fe1As1O1,Pr0.85Sr0.15Fe1As1O1,"{'As': 1.0, 'Fe': 1.0, 'O': 1.0, 'Pr': 0.85, 'Sr': 0.15}",15.5,15.5,0.0,1,Pr0.85 Sr0.15 Fe1 As1 O1
1247,[21278],Pr0.9Sr0.1Fe1As1O1,Pr0.9Sr0.1Fe1As1O1,"{'As': 1.0, 'Fe': 1.0, 'O': 1.0, 'Pr': 0.9, 'Sr': 0.1}",12.8,12.8,0.0,1,Pr0.9 Sr0.1 Fe1 As1 O1
1248,[21277],Pr0.95Sr0.05Fe1As1O1,Pr0.95Sr0.05Fe1As1O1,"{'As': 1.0, 'Fe': 1.0, 'O': 1.0, 'Pr': 0.9500000000000001, 'Sr': 0.05}",4.86,4.86,0.0,1,Pr0.95 Sr0.05 Fe1 As1 O1
1249,"[20860, 20986]",Pr1Fe1As1O1-z,Pr1Fe1As1O1,"{'As': 1.0, 'Fe': 1.0, 'O': 1.0, 'Pr': 1.0}",35.0,34.5,0.5,2,Pr1 Fe1 As1 O1
1250,[21908],Sm1Fe1As1O1-z,Sm1Fe1As1O1,"{'As': 1.0, 'Fe': 1.0, 'O': 1.0, 'Sm': 1.0}",53.8,53.8,0.0,1,Sm1 Fe1 As1 O1
1251,[21986],Sr2V1Fe1As1O2.5,Sr2V1Fe1As1O2.5,"{'As': 1.0, 'Fe': 1.0, 'O': 2.5, 'Sr': 2.0, 'V': 1.0}",20.0,20.0,0.0,1,Sr2 V1 Fe1 As1 O2.5
1252,[25724],Sr2V1Fe1As1O2.75,Sr2V1Fe1As1O2.75,"{'As': 1.0, 'Fe': 1.0, 'O': 2.75, 'Sr': 2.0, 'V': 1.0}",20.0,20.0,0.0,1,Sr2 V1 Fe1 As1 O2.75
1253,[21985],Sr2V1Fe1As1O2.9,Sr2V1Fe1As1O2.9,"{'As': 1.0, 'Fe': 1.0, 'O': 2.9, 'Sr': 2.0, 'V': 1.0}",40.0,40.0,0.0,1,Sr2 V1 Fe1 As1 O2.9
1254,"[21378, 21925, 22290, 22291, 23480, 24518]",Sr2V1Fe1As1O3,Sr2V1Fe1As1O3,"{'As': 1.0, 'Fe': 1.0, 'O': 3.0, 'Sr': 2.0, 'V': 1.0}",36.4,29.775,4.9749162472,6,Sr2 V1 Fe1 As1 O3
1255,[22473],Li0.99Fe1.01As1,Li0.99Fe1.01As1,"{'As': 1.0, 'Fe': 1.01, 'Li': 0.99}",14.0,14.0,0.0,1,Li0.99 Fe1.01 As1
1256,[22474],Li0.98Fe1.02As1,Li0.98Fe1.02As1,"{'As': 1.0, 'Fe': 1.02, 'Li': 0.98}",4.61,4.61,0.0,1,Li0.98 Fe1.02 As1
1257,"[23902, 23907]",Sr1Fe2As1P1,Sr1Fe2As1P1,"{'As': 1.0, 'Fe': 2.0, 'P': 1.0, 'Sr': 1.0}",14.5,9.095,5.405,2,Sr1 Fe2 As1 P1
1258,"[12598, 12913, 15406, 19361, 19372, 21079, 21247]",As1Ga1,As1Ga1,"{'As': 1.0, 'Ga': 1.0}",10.0,5.4428571429,2.0506843059,7,As1 Ga1
1259,"[12911, 19644]",As1Ge1,As1Ge1,"{'As': 1.0, 'Ge': 1.0}",3.5,3.5,0.0,2,As1 Ge1
1260,[24288],Pr1Ni1As1H0.06O0.94,Pr1Ni1As1H0.06O0.94,"{'As': 1.0, 'H': 0.06, 'Ni': 1.0, 'O': 0.9400000000000001, 'Pr': 1.0}",1.6,1.6,0.0,1,Pr1 Ni1 As1 H0.06 O0.94
1261,[24286],La1Ni1As1H0.08O0.92,La1Ni1As1H0.08O0.92,"{'As': 1.0, 'H': 0.08, 'La': 1.0, 'Ni': 1.0, 'O': 0.92}",3.76,3.76,0.0,1,La1 Ni1 As1 H0.08 O0.92
1262,[24287],La1Ni1As1H0.17O0.83,La1Ni1As1H0.17O0.83,"{'As': 1.0, 'H': 0.17, 'La': 1.0, 'Ni': 1.0, 'O': 0.8300000000000001}",3.68,3.68,0.0,1,La1 Ni1 As1 H0.17 O0.83
1263,"[18899, 19053]",Hf1Os1As1,Hf1Os1As1,"{'As': 1.0, 'Hf': 1.0, 'Os': 1.0}",3.2,3.2,0.0,2,Hf1 Os1 As1
1264,"[18897, 19051, 24796]",Hf1Ru1As1,Hf1Ru1As1,"{'As': 1.0, 'Hf': 1.0, 'Ru': 1.0}",4.93,4.8366666667,0.1319932658,3,Hf1 Ru1 As1
1265,[24798],Zr1Hf1As1,Zr1Hf1As1,"{'As': 1.0, 'Hf': 1.0, 'Zr': 1.0}",3.2,3.2,0.0,1,Zr1 Hf1 As1
1266,[23570],La1Ir1As1,La1Ir1As1,"{'As': 1.0, 'Ir': 1.0, 'La': 1.0}",3.1,3.1,0.0,1,La1 Ir1 As1
1267,[20574],La0.8Sr0.2Ni1As1O1,La0.8Sr0.2Ni1As1O1,"{'As': 1.0, 'La': 0.8, 'Ni': 1.0, 'O': 1.0, 'Sr': 0.2}",3.5,3.5,0.0,1,La0.8 Sr0.2 Ni1 As1 O1
1268,[20573],La0.9Sr0.1Ni1As1O1,La0.9Sr0.1Ni1As1O1,"{'As': 1.0, 'La': 0.9, 'Ni': 1.0, 'O': 1.0, 'Sr': 0.1}",3.7,3.7,0.0,1,La0.9 Sr0.1 Ni1 As1 O1
1269,"[20575, 20584, 21552, 21914]",La1Ni1As1O1,La1Ni1As1O1,"{'As': 1.0, 'La': 1.0, 'Ni': 1.0, 'O': 1.0}",2.98,2.7199999999999998,0.2072438178,4,La1 Ni1 As1 O1
1270,[24134],Nb1Si1As1,Nb1Si1As1,"{'As': 1.0, 'Nb': 1.0, 'Si': 1.0}",8.2,8.2,0.0,1,Nb1 Si1 As1
1271,"[15973, 15974, 15975]",As1Nb3,As1Nb3,"{'As': 1.0, 'Nb': 3.0}",6.5,2.3533333333,2.932238432,3,As1 Nb3
1272,"[14491, 14607]",As1Ni0.12Pd0.88,As1Ni0.12Pd0.88,"{'As': 1.0, 'Ni': 0.12, 'Pd': 0.88}",1.3900000000000001,1.3900000000000001,0.0,2,As1 Ni0.12 Pd0.88
1273,"[14490, 14492, 14606, 14608]",As1Ni0.25Pd0.75,As1Ni0.25Pd0.75,"{'As': 1.0, 'Ni': 0.25, 'Pd': 0.75}",1.6,1.47,0.13,4,As1 Ni0.25 Pd0.75
1274,"[18898, 19052, 24797]",Zr1Os1As1,Zr1Os1As1,"{'As': 1.0, 'Os': 1.0, 'Zr': 1.0}",8.0,8.0,0.0,3,Zr1 Os1 As1
1275,[12914],As1Pb1,As1Pb1,"{'As': 1.0, 'Pb': 1.0}",8.4,8.4,0.0,1,As1 Pb1
1276,"[12921, 12922]",As1Pd2,As1Pd2,"{'As': 1.0, 'Pd': 2.0}",1.7000000000000002,1.15,0.55,2,As1 Pd2
1277,[14886],As1Pd5,As1Pd5,"{'As': 1.0, 'Pd': 5.0}",0.46,0.46,0.0,1,As1 Pd5
1278,"[22353, 22512, 24631, 24632, 24633, 24743]",Sr1Pt1As1,Sr1Pt1As1,"{'As': 1.0, 'Pt': 1.0, 'Sr': 1.0}",2.45,2.425,0.025,6,Sr1 Pt1 As1
1279,[22878],Ru0.86Rh0.14As1,Ru0.86Rh0.14As1,"{'As': 1.0, 'Rh': 0.14, 'Ru': 0.86}",0.75,0.75,0.0,1,Ru0.86 Rh0.14 As1
1280,[22879],Ru0.77Rh0.23As1,Ru0.77Rh0.23As1,"{'As': 1.0, 'Rh': 0.23, 'Ru': 0.77}",1.88,1.88,0.0,1,Ru0.77 Rh0.23 As1
1281,"[25600, 25897]",Ru0.75Rh0.25As1,Ru0.75Rh0.25As1,"{'As': 1.0, 'Rh': 0.25, 'Ru': 0.75}",1.8,1.7000000000000002,0.1,2,Ru0.75 Rh0.25 As1
1282,[25601],Ru0.6Rh0.4As1,Ru0.6Rh0.4As1,"{'As': 1.0, 'Rh': 0.4, 'Ru': 0.6000000000000001}",1.8,1.8,0.0,1,Ru0.6 Rh0.4 As1
1283,[22880],Ru0.58Rh0.42As1,Ru0.58Rh0.42As1,"{'As': 1.0, 'Rh': 0.42, 'Ru': 0.58}",0.68,0.68,0.0,1,Ru0.58 Rh0.42 As1
1284,[12925],As1Rh1,As1Rh1,"{'As': 1.0, 'Rh': 1.0}",0.58,0.58,0.0,1,As1 Rh1
1285,[14885],As1Rh1.4,As1Rh1.4,"{'As': 1.0, 'Rh': 1.4}",0.03,0.03,0.0,1,As1 Rh1.4
1286,"[18896, 19050, 24794, 24795]",Zr1Ru1As1,Zr1Ru1As1,"{'As': 1.0, 'Ru': 1.0, 'Zr': 1.0}",11.9,9.5125,3.6610065214,4,Zr1 Ru1 As1
1287,"[12923, 14884, 25129, 25292, 25299]",As1Sn1,As1Sn1,"{'As': 1.0, 'Sn': 1.0}",4.1,3.738,0.2329291738,5,As1 Sn1
1288,"[26242, 26243]",Ta1As1,Ta1As1,"{'As': 1.0, 'Ta': 1.0}",7.3,5.15,2.15,2,Ta1 As1
1289,[26276],Ba1Fe2As1.04P0.96,Ba1Fe2As1.04P0.96,"{'As': 1.04, 'Ba': 1.0, 'Fe': 2.0, 'P': 0.96}",15.2,15.2,0.0,1,Ba1 Fe2 As1.04 P0.96
1290,[21415],Ba1Fe2As1.06P0.94,Ba1Fe2As1.06P0.94,"{'As': 1.06, 'Ba': 1.0, 'Fe': 2.0, 'P': 0.9400000000000001}",20.8,20.8,0.0,1,Ba1 Fe2 As1.06 P0.94
1291,"[23901, 23906]",Sr1Fe2As1.08P0.92,Sr1Fe2As1.08P0.92,"{'As': 1.08, 'Fe': 2.0, 'P': 0.92, 'Sr': 1.0}",26.8,23.0,3.8,2,Sr1 Fe2 As1.08 P0.92
1292,[21717],Ba1Fe2As1.18P0.82,Ba1Fe2As1.18P0.82,"{'As': 1.18, 'Ba': 1.0, 'Fe': 2.0, 'P': 0.8200000000000001}",25.3,25.3,0.0,1,Ba1 Fe2 As1.18 P0.82
1293,[22589],Sr1Fe2As1.2P0.8,Sr1Fe2As1.2P0.8,"{'As': 1.2, 'Fe': 2.0, 'P': 0.8, 'Sr': 1.0}",27.0,27.0,0.0,1,Sr1 Fe2 As1.2 P0.8
1294,[26277],Ba1Fe2As1.22P0.78,Ba1Fe2As1.22P0.78,"{'As': 1.22, 'Ba': 1.0, 'Fe': 2.0, 'P': 0.78}",9.1,9.1,0.0,1,Ba1 Fe2 As1.22 P0.78
1295,"[23900, 23905]",Sr1Fe2As1.22P0.78,Sr1Fe2As1.22P0.78,"{'As': 1.22, 'Fe': 2.0, 'P': 0.78, 'Sr': 1.0}",29.8,27.35,2.45,2,Sr1 Fe2 As1.22 P0.78
1296,[21414],Ba1Fe2As1.28P0.72,Ba1Fe2As1.28P0.72,"{'As': 1.28, 'Ba': 1.0, 'Fe': 2.0, 'P': 0.72}",22.4,22.4,0.0,1,Ba1 Fe2 As1.28 P0.72
1297,[23581],Ba1Fe1.97Mn0.03As1.3P0.7,Ba1Fe1.97Mn0.03As1.3P0.7,"{'As': 1.3, 'Ba': 1.0, 'Fe': 1.97, 'Mn': 0.03, 'P': 0.7000000000000001}",16.0,16.0,0.0,1,Ba1 Fe1.97 Mn0.03 As1.3 P0.7
1298,"[21879, 23580]",Ba1Fe2As1.3P0.7,Ba1Fe2As1.3P0.7,"{'As': 1.3, 'Ba': 1.0, 'Fe': 2.0, 'P': 0.7000000000000001}",30.5,30.25,0.25,2,Ba1 Fe2 As1.3 P0.7
1299,"[22588, 23089, 23090, 23899, 23904]",Sr1Fe2As1.3P0.7,Sr1Fe2As1.3P0.7,"{'As': 1.3, 'Fe': 2.0, 'P': 0.7000000000000001, 'Sr': 1.0}",34.0,27.44,4.0539363587,5,Sr1 Fe2 As1.3 P0.7
1300,"[21497, 21716, 22979, 23853, 24848, 25263, 25264, 25265]",Ba1Fe2As1.34P0.66,Ba1Fe2As1.34P0.66,"{'As': 1.34, 'Ba': 1.0, 'Fe': 2.0, 'P': 0.66}",30.5,27.7625,2.7847520087,8,Ba1 Fe2 As1.34 P0.66
1301,[21413],Ba1Fe2As1.36P0.64,Ba1Fe2As1.36P0.64,"{'As': 1.3599999999999999, 'Ba': 1.0, 'Fe': 2.0, 'P': 0.64}",29.1,29.1,0.0,1,Ba1 Fe2 As1.36 P0.64
1302,[25323],Ba1Fe2As1.4P0.6,Ba1Fe2As1.4P0.6,"{'As': 1.4, 'Ba': 1.0, 'Fe': 2.0, 'P': 0.6000000000000001}",21.7,21.7,0.0,1,Ba1 Fe2 As1.4 P0.6
1303,[22625],Eu0.7Na0.3Fe2As1.4P0.6,Eu0.7Na0.3Fe2As1.4P0.6,"{'As': 1.4, 'Eu': 0.7000000000000001, 'Fe': 2.0, 'Na': 0.30000000000000004, 'P': 0.6000000000000001}",25.2,25.2,0.0,1,Eu0.7 Na0.3 Fe2 As1.4 P0.6
1304,"[21011, 24359]",Eu1Fe2As1.4P0.6,Eu1Fe2As1.4P0.6,"{'As': 1.4, 'Eu': 1.0, 'Fe': 2.0, 'P': 0.6000000000000001}",26.0,18.0,8.0,2,Eu1 Fe2 As1.4 P0.6
1305,"[22587, 23555, 23898, 23903]",Sr1Fe2As1.4P0.6,Sr1Fe2As1.4P0.6,"{'As': 1.4, 'Fe': 2.0, 'P': 0.6000000000000001, 'Sr': 1.0}",33.9,27.95,3.6335244598000003,4,Sr1 Fe2 As1.4 P0.6
1306,[25322],Ba1Fe2As1.44P0.56,Ba1Fe2As1.44P0.56,"{'As': 1.44, 'Ba': 1.0, 'Fe': 2.0, 'P': 0.56}",30.0,30.0,0.0,1,Ba1 Fe2 As1.44 P0.56
1307,[22978],Ba1Fe2As1.46P0.54,Ba1Fe2As1.46P0.54,"{'As': 1.46, 'Ba': 1.0, 'Fe': 2.0, 'P': 0.54}",24.5,24.5,0.0,1,Ba1 Fe2 As1.46 P0.54
1308,[22204],Eu1Fe2As1.46P0.54,Eu1Fe2As1.46P0.54,"{'As': 1.46, 'Eu': 1.0, 'Fe': 2.0, 'P': 0.54}",26.0,26.0,0.0,1,Eu1 Fe2 As1.46 P0.54
1309,"[22823, 22977]",Ba1Fe2As1.5P0.5,Ba1Fe2As1.5P0.5,"{'As': 1.5, 'Ba': 1.0, 'Fe': 2.0, 'P': 0.5}",29.9,22.9,7.0,2,Ba1 Fe2 As1.5 P0.5
1310,"[21412, 25321]",Ba1Fe2As1.52P0.48,Ba1Fe2As1.52P0.48,"{'As': 1.52, 'Ba': 1.0, 'Fe': 2.0, 'P': 0.48}",30.1,26.7,3.4,2,Ba1 Fe2 As1.52 P0.48
1311,[22851],Eu1Fe2As1.58P0.42,Eu1Fe2As1.58P0.42,"{'As': 1.58, 'Eu': 1.0, 'Fe': 2.0, 'P': 0.42}",29.0,29.0,0.0,1,Eu1 Fe2 As1.58 P0.42
1312,[26004],Zr1As1.58Se0.39,Zr1As1.58Se0.39,"{'As': 1.58, 'Se': 0.39, 'Zr': 1.0}",0.14,0.14,0.0,1,Zr1 As1.58 Se0.39
1313,"[21411, 21715, 22822]",Ba1Fe2As1.6P0.4,Ba1Fe2As1.6P0.4,"{'As': 1.6, 'Ba': 1.0, 'Fe': 2.0, 'P': 0.4}",13.475,9.7583333333,2.6895115211,3,Ba1 Fe2 As1.6 P0.4
1314,[22203],Eu1Fe2As1.6P0.4,Eu1Fe2As1.6P0.4,"{'As': 1.6, 'Eu': 1.0, 'Fe': 2.0, 'P': 0.4}",29.0,29.0,0.0,1,Eu1 Fe2 As1.6 P0.4
1315,[22215],Eu1Fe1As1.64P0.36,Eu1Fe1As1.64P0.36,"{'As': 1.6400000000000001, 'Eu': 1.0, 'Fe': 1.0, 'P': 0.36}",28.0,28.0,0.0,1,Eu1 Fe1 As1.64 P0.36
1316,[25928],Hf1As1.67Te0.12,Hf1As1.67Te0.12,"{'As': 1.67, 'Hf': 1.0, 'Te': 0.12}",1.7000000000000002,1.7000000000000002,0.0,1,Hf1 As1.67 Te0.12
1317,[22202],Eu1Fe2As1.68P0.32,Eu1Fe2As1.68P0.32,"{'As': 1.6800000000000002, 'Eu': 1.0, 'Fe': 2.0, 'P': 0.32}",22.0,22.0,0.0,1,Eu1 Fe2 As1.68 P0.32
1318,"[22201, 23431]",Eu1Fe2As1.7P0.3,Eu1Fe2As1.7P0.3,"{'As': 1.7000000000000002, 'Eu': 1.0, 'Fe': 2.0, 'P': 0.30000000000000004}",25.0,23.0,2.0,2,Eu1 Fe2 As1.7 P0.3
1319,[25934],Hf1As1.7Se0.2,Hf1As1.7Se0.2,"{'As': 1.7000000000000002, 'Hf': 1.0, 'Se': 0.2}",0.52,0.52,0.0,1,Hf1 As1.7 Se0.2
1320,[21714],Ba1Fe2As1.72P0.28,Ba1Fe2As1.72P0.28,"{'As': 1.72, 'Ba': 1.0, 'Fe': 2.0, 'P': 0.28}",0.0,0.0,0.0,1,Ba1 Fe2 As1.72 P0.28
1321,[24278],Ba1Ni2As1.792P0.208,Ba1Ni2As1.792P0.208,"{'As': 1.792, 'Ba': 1.0, 'Ni': 2.0, 'P': 0.20800000000000002}",3.24,3.24,0.0,1,Ba1 Ni2 As1.792 P0.208
1322,[23890],Ca0.76Ce0.24Fe1As1.8Sb0.2,Ca0.76Ce0.24Fe1As1.8Sb0.2,"{'As': 1.8, 'Ca': 0.76, 'Ce': 0.24, 'Fe': 1.0, 'Sb': 0.2}",43.0,43.0,0.0,1,Ca0.76 Ce0.24 Fe1 As1.8 Sb0.2
1323,[23880],Ca0.88La0.12Fe1As1.8Sb0.2,Ca0.88La0.12Fe1As1.8Sb0.2,"{'As': 1.8, 'Ca': 0.88, 'Fe': 1.0, 'La': 0.12, 'Sb': 0.2}",47.2,47.2,0.0,1,Ca0.88 La0.12 Fe1 As1.8 Sb0.2
1324,[23873],Ca0.9Pr0.1Fe1.3As1.8O0.2,Ca0.9Pr0.1Fe1.3As1.8O0.2,"{'As': 1.8, 'Ca': 0.9, 'Fe': 1.3, 'O': 0.2, 'Pr': 0.1}",20.0,20.0,0.0,1,Ca0.9 Pr0.1 Fe1.3 As1.8 O0.2
1325,[24277],Ba1Ni2As1.816P0.184,Ba1Ni2As1.816P0.184,"{'As': 1.816, 'Ba': 1.0, 'Ni': 2.0, 'P': 0.184}",3.27,3.27,0.0,1,Ba1 Ni2 As1.816 P0.184
1326,[25350],Ca1Fe2As1.83P0.17,Ca1Fe2As1.83P0.17,"{'As': 1.83, 'Ca': 1.0, 'Fe': 2.0, 'P': 0.17}",28.8,28.8,0.0,1,Ca1 Fe2 As1.83 P0.17
1327,[24276],Ba1Ni2As1.846P0.154,Ba1Ni2As1.846P0.154,"{'As': 1.846, 'Ba': 1.0, 'Ni': 2.0, 'P': 0.154}",3.2800000000000002,3.2800000000000002,0.0,1,Ba1 Ni2 As1.846 P0.154
1328,[25349],Ca1Fe2As1.86P0.14,Ca1Fe2As1.86P0.14,"{'As': 1.8599999999999999, 'Ca': 1.0, 'Fe': 2.0, 'P': 0.14}",20.0,20.0,0.0,1,Ca1 Fe2 As1.86 P0.14
1329,[25348],Ca1Fe2As1.9P0.1,Ca1Fe2As1.9P0.1,"{'As': 1.9, 'Ca': 1.0, 'Fe': 2.0, 'P': 0.1}",12.6,12.6,0.0,1,Ca1 Fe2 As1.9 P0.1
1330,[24275],Ba1Ni2As1.902P0.098,Ba1Ni2As1.902P0.098,"{'As': 1.9020000000000001, 'Ba': 1.0, 'Ni': 2.0, 'P': 0.098}",0.763,0.763,0.0,1,Ba1 Ni2 As1.902 P0.098
1331,[22590],Ca1Fe2As1.925P0.075,Ca1Fe2As1.925P0.075,"{'As': 1.925, 'Ca': 1.0, 'Fe': 2.0, 'P': 0.075}",13.0,13.0,0.0,1,Ca1 Fe2 As1.925 P0.075
1332,[25347],Ca1Fe2As1.94P0.06,Ca1Fe2As1.94P0.06,"{'As': 1.94, 'Ca': 1.0, 'Fe': 2.0, 'P': 0.06}",11.0,11.0,0.0,1,Ca1 Fe2 As1.94 P0.06
1333,[24274],Ba1Ni2As1.972P0.028,Ba1Ni2As1.972P0.028,"{'As': 1.972, 'Ba': 1.0, 'Ni': 2.0, 'P': 0.028}",0.634,0.634,0.0,1,Ba1 Ni2 As1.972 P0.028
1334,[23895],Ca0.81Nd0.19Fe1As1.98Sb0.02,Ca0.81Nd0.19Fe1As1.98Sb0.02,"{'As': 1.98, 'Ca': 0.81, 'Fe': 1.0, 'Nd': 0.19, 'Sb': 0.02}",24.0,24.0,0.0,1,Ca0.81 Nd0.19 Fe1 As1.98 Sb0.02
1335,[23892],Ca0.82Pr0.18Fe1As1.98Sb0.02,Ca0.82Pr0.18Fe1As1.98Sb0.02,"{'As': 1.98, 'Ca': 0.8200000000000001, 'Fe': 1.0, 'Pr': 0.18, 'Sb': 0.02}",26.0,26.0,0.0,1,Ca0.82 Pr0.18 Fe1 As1.98 Sb0.02
1336,[23889],Ca0.84Ce0.16Fe1As1.98Sb0.02,Ca0.84Ce0.16Fe1As1.98Sb0.02,"{'As': 1.98, 'Ca': 0.84, 'Ce': 0.16, 'Fe': 1.0, 'Sb': 0.02}",21.0,21.0,0.0,1,Ca0.84 Ce0.16 Fe1 As1.98 Sb0.02
1337,"[23881, 24183]",Ca0.85La0.15Fe1As1.98Sb0.02,Ca0.85La0.15Fe1As1.98Sb0.02,"{'As': 1.98, 'Ca': 0.85, 'Fe': 1.0, 'La': 0.15, 'Sb': 0.02}",43.0,43.0,0.0,2,Ca0.85 La0.15 Fe1 As1.98 Sb0.02
1338,[24179],Ca0.77La0.23Fe1As1.99P0.01,Ca0.77La0.23Fe1As1.99P0.01,"{'As': 1.99, 'Ca': 0.77, 'Fe': 1.0, 'La': 0.23, 'P': 0.01}",28.0,28.0,0.0,1,Ca0.77 La0.23 Fe1 As1.99 P0.01
1339,[24178],Ca0.82La0.18Fe1As1.99P0.01,Ca0.82La0.18Fe1As1.99P0.01,"{'As': 1.99, 'Ca': 0.8200000000000001, 'Fe': 1.0, 'La': 0.18, 'P': 0.01}",39.0,39.0,0.0,1,Ca0.82 La0.18 Fe1 As1.99 P0.01
1340,[24177],Ca0.84La0.16Fe1As1.99P0.01,Ca0.84La0.16Fe1As1.99P0.01,"{'As': 1.99, 'Ca': 0.84, 'Fe': 1.0, 'La': 0.16, 'P': 0.01}",41.0,41.0,0.0,1,Ca0.84 La0.16 Fe1 As1.99 P0.01
1341,[25054],Ba0.08K0.92Fe2As2,Ba0.08K0.92Fe2As2,"{'As': 2.0, 'Ba': 0.08, 'Fe': 2.0, 'K': 0.92}",6.37,6.37,0.0,1,Ba0.08 K0.92 Fe2 As2
1342,"[23103, 23235, 25053]",Ba0.1K0.9Fe2As2,Ba0.1K0.9Fe2As2,"{'As': 2.0, 'Ba': 0.1, 'Fe': 2.0, 'K': 0.9}",7.39,7.0833333333,0.2242518426,3,Ba0.1 K0.9 Fe2 As2
1343,[23567],Ba0.1Na0.9Fe2As2,Ba0.1Na0.9Fe2As2,"{'As': 2.0, 'Ba': 0.1, 'Fe': 2.0, 'Na': 0.9}",18.4,18.4,0.0,1,Ba0.1 Na0.9 Fe2 As2
1344,[25052],Ba0.18K0.82Fe2As2,Ba0.18K0.82Fe2As2,"{'As': 2.0, 'Ba': 0.18, 'Fe': 2.0, 'K': 0.8200000000000001}",10.0,10.0,0.0,1,Ba0.18 K0.82 Fe2 As2
1345,"[21787, 23102, 25051]",Ba0.2K0.8Fe2As2,Ba0.2K0.8Fe2As2,"{'As': 2.0, 'Ba': 0.2, 'Fe': 2.0, 'K': 0.8}",14.5,13.3666666667,1.2036980057,3,Ba0.2 K0.8 Fe2 As2
1346,"[23566, 25206]",Ba0.2Na0.8Fe2As2,Ba0.2Na0.8Fe2As2,"{'As': 2.0, 'Ba': 0.2, 'Fe': 2.0, 'Na': 0.8}",19.2,18.9,0.30000000000000004,2,Ba0.2 Na0.8 Fe2 As2
1347,"[23101, 23234]",Ba0.3K0.7Fe2As2,Ba0.3K0.7Fe2As2,"{'As': 2.0, 'Ba': 0.30000000000000004, 'Fe': 2.0, 'K': 0.7000000000000001}",20.0,19.7,0.30000000000000004,2,Ba0.3 K0.7 Fe2 As2
1348,"[23565, 25205]",Ba0.3Na0.7Fe2As2,Ba0.3Na0.7Fe2As2,"{'As': 2.0, 'Ba': 0.30000000000000004, 'Fe': 2.0, 'Na': 0.7000000000000001}",24.2,24.1,0.1,2,Ba0.3 Na0.7 Fe2 As2
1349,[25044],Ba0.31K0.69Fe2As2,Ba0.31K0.69Fe2As2,"{'As': 2.0, 'Ba': 0.31, 'Fe': 2.0, 'K': 0.6900000000000001}",17.8,17.8,0.0,1,Ba0.31 K0.69 Fe2 As2
1350,[25050],Ba0.35K0.65Fe2As2,Ba0.35K0.65Fe2As2,"{'As': 2.0, 'Ba': 0.35000000000000003, 'Fe': 2.0, 'K': 0.65}",24.8,24.8,0.0,1,Ba0.35 K0.65 Fe2 As2
1351,[22995],Ba0.39K0.61Fe2As2,Ba0.39K0.61Fe2As2,"{'As': 2.0, 'Ba': 0.39, 'Fe': 2.0, 'K': 0.61}",24.5,24.5,0.0,1,Ba0.39 K0.61 Fe2 As2
1352,"[21437, 21786, 23100]",Ba0.4K0.6Fe2As2,Ba0.4K0.6Fe2As2,"{'As': 2.0, 'Ba': 0.4, 'Fe': 2.0, 'K': 0.6000000000000001}",35.2,31.2,2.8577380332,3,Ba0.4 K0.6 Fe2 As2
1353,"[23564, 25204]",Ba0.4Na0.6Fe2As2,Ba0.4Na0.6Fe2As2,"{'As': 2.0, 'Ba': 0.4, 'Fe': 2.0, 'Na': 0.6000000000000001}",28.7,28.7,0.0,2,Ba0.4 Na0.6 Fe2 As2
1354,"[25049, 25516]",Ba0.45K0.55Fe2As2,Ba0.45K0.55Fe2As2,"{'As': 2.0, 'Ba': 0.45, 'Fe': 2.0, 'K': 0.55}",33.1,32.9,0.2,2,Ba0.45 K0.55 Fe2 As2
1355,[25048],Ba0.47K0.53Fe2As2,Ba0.47K0.53Fe2As2,"{'As': 2.0, 'Ba': 0.47000000000000003, 'Fe': 2.0, 'K': 0.53}",34.3,34.3,0.0,1,Ba0.47 K0.53 Fe2 As2
1356,[21941],Ba0.49K0.51Fe1.79Co0.21As2,Ba0.49K0.51Fe1.79Co0.21As2,"{'As': 2.0, 'Ba': 0.49, 'Co': 0.21, 'Fe': 1.79, 'K': 0.51}",15.0,15.0,0.0,1,Ba0.49 K0.51 Fe1.79 Co0.21 As2
1357,[22907],Ba0.5K0.5Fe1.9Co0.1As2,Ba0.5K0.5Fe1.9Co0.1As2,"{'As': 2.0, 'Ba': 0.5, 'Co': 0.1, 'Fe': 1.9, 'K': 0.5}",30.31,30.31,0.0,1,Ba0.5 K0.5 Fe1.9 Co0.1 As2
1358,[22917],Ba0.5K0.5Fe1.8Co0.2As2,Ba0.5K0.5Fe1.8Co0.2As2,"{'As': 2.0, 'Ba': 0.5, 'Co': 0.2, 'Fe': 1.8, 'K': 0.5}",19.95,19.95,0.0,1,Ba0.5 K0.5 Fe1.8 Co0.2 As2