,sc_id,supercon_formula,cleaned_formula,material_dict,highest_Tc,average_Tc,std_Tc,entry_count,composition
5843,[4978],Nd0.95Pr0.05Ba2Cu3O6.65,Nd0.95Pr0.05Ba2Cu3O6.65,"{'Ba': 2.0, 'Cu': 3.0, 'Nd': 0.9500000000000001, 'O': 6.65, 'Pr': 0.05}",26.7,26.7,0.0,1,Nd0.95 Pr0.05 Ba2 Cu3 O6.65
5844,[4973],Nd0.95Pr0.05Ba2Cu3O6.75,Nd0.95Pr0.05Ba2Cu3O6.75,"{'Ba': 2.0, 'Cu': 3.0, 'Nd': 0.9500000000000001, 'O': 6.75, 'Pr': 0.05}",45.8,45.8,0.0,1,Nd0.95 Pr0.05 Ba2 Cu3 O6.75
5845,[4967],Nd0.95Pr0.05Ba2Cu3O6.85,Nd0.95Pr0.05Ba2Cu3O6.85,"{'Ba': 2.0, 'Cu': 3.0, 'Nd': 0.9500000000000001, 'O': 6.85, 'Pr': 0.05}",57.2,57.2,0.0,1,Nd0.95 Pr0.05 Ba2 Cu3 O6.85
5846,[7314],Nd0.95Pr0.05Ba2Cu3O7-z,Nd0.95Pr0.05Ba2Cu3O7,"{'Ba': 2.0, 'Cu': 3.0, 'Nd': 0.9500000000000001, 'O': 7.0, 'Pr': 0.05}",84.4,84.4,0.0,1,Nd0.95 Pr0.05 Ba2 Cu3 O7
5847,[3869],Nd0.97Pr0.03Ba2Cu3O7,Nd0.97Pr0.03Ba2Cu3O7,"{'Ba': 2.0, 'Cu': 3.0, 'Nd': 0.97, 'O': 7.0, 'Pr': 0.03}",85.1,85.1,0.0,1,Nd0.97 Pr0.03 Ba2 Cu3 O7
5848,[339],Nd1Ba2Cu3S1O5,Nd1Ba2Cu3S1O5,"{'Ba': 2.0, 'Cu': 3.0, 'Nd': 1.0, 'O': 5.0, 'S': 1.0}",56.0,56.0,0.0,1,Nd1 Ba2 Cu3 S1 O5
5849,[338],Nd1Ba2Cu3S1O6,Nd1Ba2Cu3S1O6,"{'Ba': 2.0, 'Cu': 3.0, 'Nd': 1.0, 'O': 6.0, 'S': 1.0}",69.0,69.0,0.0,1,Nd1 Ba2 Cu3 S1 O6
5850,[9066],Nd1Ba2Cu3O6.09,Nd1Ba2Cu3O6.09,"{'Ba': 2.0, 'Cu': 3.0, 'Nd': 1.0, 'O': 6.09}",90.5,90.5,0.0,1,Nd1 Ba2 Cu3 O6.09
5851,[9067],Nd1Ba2Cu3O6.23,Nd1Ba2Cu3O6.23,"{'Ba': 2.0, 'Cu': 3.0, 'Nd': 1.0, 'O': 6.23}",60.5,60.5,0.0,1,Nd1 Ba2 Cu3 O6.23
5852,[4980],Nd1Ba2Cu3O6.6,Nd1Ba2Cu3O6.6,"{'Ba': 2.0, 'Cu': 3.0, 'Nd': 1.0, 'O': 6.6}",14.0,14.0,0.0,1,Nd1 Ba2 Cu3 O6.6
5853,[4977],Nd1Ba2Cu3O6.65,Nd1Ba2Cu3O6.65,"{'Ba': 2.0, 'Cu': 3.0, 'Nd': 1.0, 'O': 6.65}",34.3,34.3,0.0,1,Nd1 Ba2 Cu3 O6.65
5854,[5546],Nd1Ba2Cu3O6.67,Nd1Ba2Cu3O6.67,"{'Ba': 2.0, 'Cu': 3.0, 'Nd': 1.0, 'O': 6.67}",29.0,29.0,0.0,1,Nd1 Ba2 Cu3 O6.67
5855,[4972],Nd1Ba2Cu3O6.75,Nd1Ba2Cu3O6.75,"{'Ba': 2.0, 'Cu': 3.0, 'Nd': 1.0, 'O': 6.75}",52.8,52.8,0.0,1,Nd1 Ba2 Cu3 O6.75
5856,[7717],Nd1Ba2Cu3O6.76,Nd1Ba2Cu3O6.76,"{'Ba': 2.0, 'Cu': 3.0, 'Nd': 1.0, 'O': 6.76}",94.0,94.0,0.0,1,Nd1 Ba2 Cu3 O6.76
5857,[7957],Nd1Ba2Cu3O6.78,Nd1Ba2Cu3O6.78,"{'Ba': 2.0, 'Cu': 3.0, 'Nd': 1.0, 'O': 6.78}",63.0,63.0,0.0,1,Nd1 Ba2 Cu3 O6.78
5858,[3731],Nd1Ba2Cu3O6.81,Nd1Ba2Cu3O6.81,"{'Ba': 2.0, 'Cu': 3.0, 'Nd': 1.0, 'O': 6.8100000000000005}",91.7,91.7,0.0,1,Nd1 Ba2 Cu3 O6.81
5859,[7094],Nd1Ba2Cu3O6.82,Nd1Ba2Cu3O6.82,"{'Ba': 2.0, 'Cu': 3.0, 'Nd': 1.0, 'O': 6.82}",95.0,95.0,0.0,1,Nd1 Ba2 Cu3 O6.82
5860,[1237],Nd1Ba2Cu3O6.84,Nd1Ba2Cu3O6.84,"{'Ba': 2.0, 'Cu': 3.0, 'Nd': 1.0, 'O': 6.84}",93.0,93.0,0.0,1,Nd1 Ba2 Cu3 O6.84
5861,[4966],Nd1Ba2Cu3O6.85,Nd1Ba2Cu3O6.85,"{'Ba': 2.0, 'Cu': 3.0, 'Nd': 1.0, 'O': 6.85}",67.4,67.4,0.0,1,Nd1 Ba2 Cu3 O6.85
5862,[2715],Nd1Ba2Cu3O6.86,Nd1Ba2Cu3O6.86,"{'Ba': 2.0, 'Cu': 3.0, 'Nd': 1.0, 'O': 6.86}",78.6,78.6,0.0,1,Nd1 Ba2 Cu3 O6.86
5863,[5130],Nd1Ba2Cu3O6.93,Nd1Ba2Cu3O6.93,"{'Ba': 2.0, 'Cu': 3.0, 'Nd': 1.0, 'O': 6.93}",91.5,91.5,0.0,1,Nd1 Ba2 Cu3 O6.93
5864,[7956],Nd1Ba2Cu3O6.94,Nd1Ba2Cu3O6.94,"{'Ba': 2.0, 'Cu': 3.0, 'Nd': 1.0, 'O': 6.94}",90.0,90.0,0.0,1,Nd1 Ba2 Cu3 O6.94
5865,[5779],Nd1Ba2Cu3O6.95,Nd1Ba2Cu3O6.95,"{'Ba': 2.0, 'Cu': 3.0, 'Nd': 1.0, 'O': 6.95}",89.0,89.0,0.0,1,Nd1 Ba2 Cu3 O6.95
5866,[6424],Nd1Ba2Cu3O6.98,Nd1Ba2Cu3O6.98,"{'Ba': 2.0, 'Cu': 3.0, 'Nd': 1.0, 'O': 6.98}",91.0,91.0,0.0,1,Nd1 Ba2 Cu3 O6.98
5867,"[319, 337, 608, 1613, 1676, 2184, 3302, 3810, 3811, 3868, 3988, 5666, 5739, 5803, 6711, 6761, 7071, 7205, 7206, 7313, 7317, 8023, 8077, 8464, 8555, 8579, 9716, 9717, 9718, 9719, 9720, 10454, 10458, 11689]",Nd1Ba2Cu3O7-Z,Nd1Ba2Cu3O7,"{'Ba': 2.0, 'Cu': 3.0, 'Nd': 1.0, 'O': 7.0}",96.0,92.005,5.1205579027,34,Nd1 Ba2 Cu3 O7
5868,[2894],Nd1Ba2Cu3O7.04,Nd1Ba2Cu3O7.04,"{'Ba': 2.0, 'Cu': 3.0, 'Nd': 1.0, 'O': 7.04}",82.5,82.5,0.0,1,Nd1 Ba2 Cu3 O7.04
5869,[159],Nd1Ba2Cu3O7.16,Nd1Ba2Cu3O7.16,"{'Ba': 2.0, 'Cu': 3.0, 'Nd': 1.0, 'O': 7.16}",95.3,95.3,0.0,1,Nd1 Ba2 Cu3 O7.16
5870,[6588],Y1Ba2Cu3O4,Y1Ba2Cu3O4,"{'Ba': 2.0, 'Cu': 3.0, 'O': 4.0, 'Y': 1.0}",92.0,92.0,0.0,1,Y1 Ba2 Cu3 O4
5871,[5588],Y1Ba2Cu3O4.86,Y1Ba2Cu3O4.86,"{'Ba': 2.0, 'Cu': 3.0, 'O': 4.86, 'Y': 1.0}",93.2,93.2,0.0,1,Y1 Ba2 Cu3 O4.86
5872,"[91, 2924]",Y1Ba2Cu3S1O6,Y1Ba2Cu3S1O6,"{'Ba': 2.0, 'Cu': 3.0, 'O': 6.0, 'S': 1.0, 'Y': 1.0}",90.0,89.5,0.5,2,Y1 Ba2 Cu3 S1 O6
5873,"[8284, 8285, 8286, 8287, 9644]",Y1Ba2Cu3O6+z,Y1Ba2Cu3O6,"{'Ba': 2.0, 'Cu': 3.0, 'O': 6.0, 'Y': 1.0}",91.1,31.94,29.711721592700002,5,Y1 Ba2 Cu3 O6
5874,[6933],Ba2Yb1Cu3O6+z,Ba2Yb1Cu3O6,"{'Ba': 2.0, 'Cu': 3.0, 'O': 6.0, 'Yb': 1.0}",90.1,90.1,0.0,1,Ba2 Yb1 Cu3 O6
5875,[7820],Y1Ba2Cu3O6.03,Y1Ba2Cu3O6.03,"{'Ba': 2.0, 'Cu': 3.0, 'O': 6.03, 'Y': 1.0}",92.0,92.0,0.0,1,Y1 Ba2 Cu3 O6.03
5876,"[9519, 9520, 9531]",Y1Ba2Cu3O6.1,Y1Ba2Cu3O6.1,"{'Ba': 2.0, 'Cu': 3.0, 'O': 6.1, 'Y': 1.0}",92.0,60.6666666667,42.9055810925,3,Y1 Ba2 Cu3 O6.1
5877,[4581],Y1Ba2Cu3O6.19,Y1Ba2Cu3O6.19,"{'Ba': 2.0, 'Cu': 3.0, 'O': 6.19, 'Y': 1.0}",93.2,93.2,0.0,1,Y1 Ba2 Cu3 O6.19
5878,[1087],Y1Ba2Cu3O6.29,Y1Ba2Cu3O6.29,"{'Ba': 2.0, 'Cu': 3.0, 'O': 6.29, 'Y': 1.0}",21.9,21.9,0.0,1,Y1 Ba2 Cu3 O6.29
5879,[779],Y1Ba2Cu3O6.3,Y1Ba2Cu3O6.3,"{'Ba': 2.0, 'Cu': 3.0, 'O': 6.3, 'Y': 1.0}",28.0,28.0,0.0,1,Y1 Ba2 Cu3 O6.3
5880,[1390],Y1Ba2Cu3O6.33,Y1Ba2Cu3O6.33,"{'Ba': 2.0, 'Cu': 3.0, 'O': 6.33, 'Y': 1.0}",18.6,18.6,0.0,1,Y1 Ba2 Cu3 O6.33
5881,[1088],Y1Ba2Cu3O6.34,Y1Ba2Cu3O6.34,"{'Ba': 2.0, 'Cu': 3.0, 'O': 6.34, 'Y': 1.0}",23.5,23.5,0.0,1,Y1 Ba2 Cu3 O6.34
5882,[5581],Y1Ba2Cu3O6.346,Y1Ba2Cu3O6.346,"{'Ba': 2.0, 'Cu': 3.0, 'O': 6.346, 'Y': 1.0}",12.3,12.3,0.0,1,Y1 Ba2 Cu3 O6.346
5883,"[3415, 8283, 11823]",Y1Ba2Cu3O6.35,Y1Ba2Cu3O6.35,"{'Ba': 2.0, 'Cu': 3.0, 'O': 6.35, 'Y': 1.0}",20.0,14.6333333333,4.5389670876,3,Y1 Ba2 Cu3 O6.35
5884,[1603],Y1Ba2Cu3O6.36,Y1Ba2Cu3O6.36,"{'Ba': 2.0, 'Cu': 3.0, 'O': 6.36, 'Y': 1.0}",8.3,8.3,0.0,1,Y1 Ba2 Cu3 O6.36
5885,"[4672, 6640]",Y1Ba2Cu3O6.37,Y1Ba2Cu3O6.37,"{'Ba': 2.0, 'Cu': 3.0, 'O': 6.37, 'Y': 1.0}",40.87,27.185,13.685,2,Y1 Ba2 Cu3 O6.37
5886,[11768],Y1Ba2Cu3O6.375,Y1Ba2Cu3O6.375,"{'Ba': 2.0, 'Cu': 3.0, 'O': 6.375, 'Y': 1.0}",19.0,19.0,0.0,1,Y1 Ba2 Cu3 O6.375
5887,"[4609, 6641, 6642, 6643, 6644]",Y1Ba2Cu3O6.38,Y1Ba2Cu3O6.38,"{'Ba': 2.0, 'Cu': 3.0, 'O': 6.38, 'Y': 1.0}",23.9,15.54,4.8910530563,5,Y1 Ba2 Cu3 O6.38
5888,"[452, 3414, 4607, 4608, 7178, 9739]",Y1Ba2Cu3O6.4,Y1Ba2Cu3O6.4,"{'Ba': 2.0, 'Cu': 3.0, 'O': 6.4, 'Y': 1.0}",36.55,32.95,4.445034683,6,Y1 Ba2 Cu3 O6.4
5889,[5582],Y1Ba2Cu3O6.409,Y1Ba2Cu3O6.409,"{'Ba': 2.0, 'Cu': 3.0, 'O': 6.409, 'Y': 1.0}",26.0,26.0,0.0,1,Y1 Ba2 Cu3 O6.409
5890,[9860],Tm1Ba2Cu3O6.41,Tm1Ba2Cu3O6.41,"{'Ba': 2.0, 'Cu': 3.0, 'O': 6.41, 'Tm': 1.0}",19.0,19.0,0.0,1,Tm1 Ba2 Cu3 O6.41
5891,"[786, 4673, 6482, 9562, 9563]",Y1Ba2Cu3O6.41,Y1Ba2Cu3O6.41,"{'Ba': 2.0, 'Cu': 3.0, 'O': 6.41, 'Y': 1.0}",49.5,22.54,14.0919267668,5,Y1 Ba2 Cu3 O6.41
5892,[3962],Y0.9Rb0.1Ba2Cu3O6.42,Y0.9Rb0.1Ba2Cu3O6.42,"{'Ba': 2.0, 'Cu': 3.0, 'O': 6.42, 'Rb': 0.1, 'Y': 0.9}",92.4,92.4,0.0,1,Y0.9 Rb0.1 Ba2 Cu3 O6.42
5893,"[1089, 6645]",Y1Ba2Cu3O6.43,Y1Ba2Cu3O6.43,"{'Ba': 2.0, 'Cu': 3.0, 'O': 6.43, 'Y': 1.0}",35.0,30.7,4.3,2,Y1 Ba2 Cu3 O6.43
5894,[9861],Tm1Ba2Cu3O6.44,Tm1Ba2Cu3O6.44,"{'Ba': 2.0, 'Cu': 3.0, 'O': 6.44, 'Tm': 1.0}",28.0,28.0,0.0,1,Tm1 Ba2 Cu3 O6.44
5895,[9345],Y0.8Ba2Cu3O6.44,Y0.8Ba2Cu3O6.44,"{'Ba': 2.0, 'Cu': 3.0, 'O': 6.44, 'Y': 0.8}",96.0,96.0,0.0,1,Y0.8 Ba2 Cu3 O6.44
5896,"[648, 1602, 3308, 3413, 4606, 6646, 6647, 6648, 6649, 7003, 7179, 9564, 10474, 23866, 23867, 24193]",Y1Ba2Cu3O6.45,Y1Ba2Cu3O6.45,"{'Ba': 2.0, 'Cu': 3.0, 'O': 6.45, 'Y': 1.0}",52.5,39.409375,8.8904833029,16,Y1 Ba2 Cu3 O6.45
5897,[518],Y1Ba2Cu3O6.46,Y1Ba2Cu3O6.46,"{'Ba': 2.0, 'Cu': 3.0, 'O': 6.46, 'Y': 1.0}",45.0,45.0,0.0,1,Y1 Ba2 Cu3 O6.46
5898,"[517, 1388]",Y1Ba2Cu3O6.47,Y1Ba2Cu3O6.47,"{'Ba': 2.0, 'Cu': 3.0, 'O': 6.47, 'Y': 1.0}",51.4,47.5,3.9,2,Y1 Ba2 Cu3 O6.47
5899,[3963],Y0.85Rb0.15Ba2Cu3O6.48,Y0.85Rb0.15Ba2Cu3O6.48,"{'Ba': 2.0, 'Cu': 3.0, 'O': 6.48, 'Rb': 0.15, 'Y': 0.85}",91.95,91.95,0.0,1,Y0.85 Rb0.15 Ba2 Cu3 O6.48
5900,"[2042, 3025, 4605, 4610, 5428]",Y1Ba2Cu3O6.48,Y1Ba2Cu3O6.48,"{'Ba': 2.0, 'Cu': 3.0, 'O': 6.48, 'Y': 1.0}",51.2,41.49,11.5124454396,5,Y1 Ba2 Cu3 O6.48
5901,[9862],Tm1Ba2Cu3O6.49,Tm1Ba2Cu3O6.49,"{'Ba': 2.0, 'Cu': 3.0, 'O': 6.49, 'Tm': 1.0}",50.0,50.0,0.0,1,Tm1 Ba2 Cu3 O6.49
5902,"[791, 4671]",Y1Ba2Cu3O6.49,Y1Ba2Cu3O6.49,"{'Ba': 2.0, 'Cu': 3.0, 'O': 6.49, 'Y': 1.0}",59.53,48.515,11.015,2,Y1 Ba2 Cu3 O6.49
5903,"[4961, 7472]",Y0.9Pr0.1Ba2Cu3O6.5,Y0.9Pr0.1Ba2Cu3O6.5,"{'Ba': 2.0, 'Cu': 3.0, 'O': 6.5, 'Pr': 0.1, 'Y': 0.9}",38.7,29.9,8.8,2,Y0.9 Pr0.1 Ba2 Cu3 O6.5
5904,[4962],Y0.85Pr0.15Ba2Cu3O6.5,Y0.85Pr0.15Ba2Cu3O6.5,"{'Ba': 2.0, 'Cu': 3.0, 'O': 6.5, 'Pr': 0.15, 'Y': 0.85}",35.8,35.8,0.0,1,Y0.85 Pr0.15 Ba2 Cu3 O6.5
5905,"[4963, 7473]",Y0.8Pr0.2Ba2Cu3O6.5,Y0.8Pr0.2Ba2Cu3O6.5,"{'Ba': 2.0, 'Cu': 3.0, 'O': 6.5, 'Pr': 0.2, 'Y': 0.8}",33.9,22.5,11.4,2,Y0.8 Pr0.2 Ba2 Cu3 O6.5
5906,"[4964, 7474]",Y0.7Pr0.3Ba2Cu3O6.5,Y0.7Pr0.3Ba2Cu3O6.5,"{'Ba': 2.0, 'Cu': 3.0, 'O': 6.5, 'Pr': 0.30000000000000004, 'Y': 0.7000000000000001}",27.2,13.6,13.6,2,Y0.7 Pr0.3 Ba2 Cu3 O6.5
5907,[4965],Y0.6Pr0.4Ba2Cu3O6.5,Y0.6Pr0.4Ba2Cu3O6.5,"{'Ba': 2.0, 'Cu': 3.0, 'O': 6.5, 'Pr': 0.4, 'Y': 0.6000000000000001}",14.9,14.9,0.0,1,Y0.6 Pr0.4 Ba2 Cu3 O6.5
5908,"[649, 1033, 1090, 4398, 4960, 7180, 7204, 7471, 8288, 8355, 9840, 10475, 24242]",Y1Ba2Cu3O6.5,Y1Ba2Cu3O6.5,"{'Ba': 2.0, 'Cu': 3.0, 'O': 6.5, 'Y': 1.0}",58.8,47.1384615385,11.2205538367,13,Y1 Ba2 Cu3 O6.5
5909,[778],Y1Ba2Cu3O6.51,Y1Ba2Cu3O6.51,"{'Ba': 2.0, 'Cu': 3.0, 'O': 6.51, 'Y': 1.0}",45.4,45.4,0.0,1,Y1 Ba2 Cu3 O6.51
5910,"[5612, 8120]",Y1Ba2Cu3O6.516,Y1Ba2Cu3O6.516,"{'Ba': 2.0, 'Cu': 3.0, 'O': 6.516, 'Y': 1.0}",58.7,58.2,0.5,2,Y1 Ba2 Cu3 O6.516
5911,"[4604, 4664, 6650, 6651, 7514, 8289]",Y1Ba2Cu3O6.52,Y1Ba2Cu3O6.52,"{'Ba': 2.0, 'Cu': 3.0, 'O': 6.52, 'Y': 1.0}",61.34,55.7483333333,2.6801145291,6,Y1 Ba2 Cu3 O6.52
5912,[7002],Y0.6Pr0.4Ba2Cu3O6.53,Y0.6Pr0.4Ba2Cu3O6.53,"{'Ba': 2.0, 'Cu': 3.0, 'O': 6.53, 'Pr': 0.4, 'Y': 0.6000000000000001}",15.0,15.0,0.0,1,Y0.6 Pr0.4 Ba2 Cu3 O6.53
5913,[7011],Y0.5Pr0.5Ba2Cu3O6.53,Y0.5Pr0.5Ba2Cu3O6.53,"{'Ba': 2.0, 'Cu': 3.0, 'O': 6.53, 'Pr': 0.5, 'Y': 0.5}",5.2,5.2,0.0,1,Y0.5 Pr0.5 Ba2 Cu3 O6.53
5914,"[777, 2043, 5259, 7004]",Y1Ba2Cu3O6.53,Y1Ba2Cu3O6.53,"{'Ba': 2.0, 'Cu': 3.0, 'O': 6.53, 'Y': 1.0}",54.8,49.775,5.8933755183,4,Y1 Ba2 Cu3 O6.53
5915,"[1091, 1551, 4585, 5026, 6309, 7938]",Y1Ba2Cu3O6.54,Y1Ba2Cu3O6.54,"{'Ba': 2.0, 'Cu': 3.0, 'O': 6.54, 'Y': 1.0}",58.0,52.0666666667,5.8967976242999995,6,Y1 Ba2 Cu3 O6.54
5916,[8119],Y1Ba2Cu3O6.546,Y1Ba2Cu3O6.546,"{'Ba': 2.0, 'Cu': 3.0, 'O': 6.546, 'Y': 1.0}",59.4,59.4,0.0,1,Y1 Ba2 Cu3 O6.546
5917,[7028],Sm0.9Pr0.1Ba2Cu3O6.55,Sm0.9Pr0.1Ba2Cu3O6.55,"{'Ba': 2.0, 'Cu': 3.0, 'O': 6.55, 'Pr': 0.1, 'Sm': 0.9}",12.2,12.2,0.0,1,Sm0.9 Pr0.1 Ba2 Cu3 O6.55
5918,[7023],Sm1Ba2Cu3O6.55,Sm1Ba2Cu3O6.55,"{'Ba': 2.0, 'Cu': 3.0, 'O': 6.55, 'Sm': 1.0}",12.8,12.8,0.0,1,Sm1 Ba2 Cu3 O6.55
5919,"[508, 1601, 4603, 4663, 5583]",Y1Ba2Cu3O6.55,Y1Ba2Cu3O6.55,"{'Ba': 2.0, 'Cu': 3.0, 'O': 6.55, 'Y': 1.0}",89.0,63.37,12.9748063569,5,Y1 Ba2 Cu3 O6.55
5920,[966],Sm1Ba2Cu3O6.554,Sm1Ba2Cu3O6.554,"{'Ba': 2.0, 'Cu': 3.0, 'O': 6.554, 'Sm': 1.0}",44.7,44.7,0.0,1,Sm1 Ba2 Cu3 O6.554
5921,"[5611, 8118]",Y1Ba2Cu3O6.556,Y1Ba2Cu3O6.556,"{'Ba': 2.0, 'Cu': 3.0, 'O': 6.556, 'Y': 1.0}",59.4,58.95,0.45,2,Y1 Ba2 Cu3 O6.556
5922,[3977],Y0.9Sc0.1Ba2Cu3O6.56,Y0.9Sc0.1Ba2Cu3O6.56,"{'Ba': 2.0, 'Cu': 3.0, 'O': 6.5600000000000005, 'Sc': 0.1, 'Y': 0.9}",91.4,91.4,0.0,1,Y0.9 Sc0.1 Ba2 Cu3 O6.56
5923,"[790, 9740]",Y1Ba2Cu3O6.56,Y1Ba2Cu3O6.56,"{'Ba': 2.0, 'Cu': 3.0, 'O': 6.5600000000000005, 'Y': 1.0}",59.0,54.7,4.3,2,Y1 Ba2 Cu3 O6.56
5924,"[4602, 10184]",Y1Ba2Cu3O6.57,Y1Ba2Cu3O6.57,"{'Ba': 2.0, 'Cu': 3.0, 'O': 6.57, 'Y': 1.0}",57.2,56.1,1.1,2,Y1 Ba2 Cu3 O6.57
5925,[9346],Y0.9Ba2Cu3O6.58,Y0.9Ba2Cu3O6.58,"{'Ba': 2.0, 'Cu': 3.0, 'O': 6.58, 'Y': 0.9}",93.4,93.4,0.0,1,Y0.9 Ba2 Cu3 O6.58
5926,"[1092, 2044, 5408]",Y1Ba2Cu3O6.58,Y1Ba2Cu3O6.58,"{'Ba': 2.0, 'Cu': 3.0, 'O': 6.58, 'Y': 1.0}",57.4,52.4,6.309252465,3,Y1 Ba2 Cu3 O6.58
5927,[3961],Y0.95Rb0.05Ba2Cu3O6.59,Y0.95Rb0.05Ba2Cu3O6.59,"{'Ba': 2.0, 'Cu': 3.0, 'O': 6.59, 'Rb': 0.05, 'Y': 0.9500000000000001}",92.05,92.05,0.0,1,Y0.95 Rb0.05 Ba2 Cu3 O6.59
5928,"[1387, 5025, 5260]",Y1Ba2Cu3O6.59,Y1Ba2Cu3O6.59,"{'Ba': 2.0, 'Cu': 3.0, 'O': 6.59, 'Y': 1.0}",61.2,60.7666666667,0.612825877,3,Y1 Ba2 Cu3 O6.59
5929,[7466],Y0.9Pr0.1Ba2Cu3O6.6,Y0.9Pr0.1Ba2Cu3O6.6,"{'Ba': 2.0, 'Cu': 3.0, 'O': 6.6, 'Pr': 0.1, 'Y': 0.9}",44.1,44.1,0.0,1,Y0.9 Pr0.1 Ba2 Cu3 O6.6
5930,[7467],Y0.8Pr0.2Ba2Cu3O6.6,Y0.8Pr0.2Ba2Cu3O6.6,"{'Ba': 2.0, 'Cu': 3.0, 'O': 6.6, 'Pr': 0.2, 'Y': 0.8}",37.0,37.0,0.0,1,Y0.8 Pr0.2 Ba2 Cu3 O6.6
5931,[7468],Y0.7Pr0.3Ba2Cu3O6.6,Y0.7Pr0.3Ba2Cu3O6.6,"{'Ba': 2.0, 'Cu': 3.0, 'O': 6.6, 'Pr': 0.30000000000000004, 'Y': 0.7000000000000001}",28.5,28.5,0.0,1,Y0.7 Pr0.3 Ba2 Cu3 O6.6
5932,[7469],Y0.65Pr0.35Ba2Cu3O6.6,Y0.65Pr0.35Ba2Cu3O6.6,"{'Ba': 2.0, 'Cu': 3.0, 'O': 6.6, 'Pr': 0.35000000000000003, 'Y': 0.65}",21.5,21.5,0.0,1,Y0.65 Pr0.35 Ba2 Cu3 O6.6
5933,[7470],Y0.6Pr0.4Ba2Cu3O6.6,Y0.6Pr0.4Ba2Cu3O6.6,"{'Ba': 2.0, 'Cu': 3.0, 'O': 6.6, 'Pr': 0.4, 'Y': 0.6000000000000001}",0.0,0.0,0.0,1,Y0.6 Pr0.4 Ba2 Cu3 O6.6
5934,[8901],Pr1Ba2Cu3O6.6,Pr1Ba2Cu3O6.6,"{'Ba': 2.0, 'Cu': 3.0, 'O': 6.6, 'Pr': 1.0}",60.0,60.0,0.0,1,Pr1 Ba2 Cu3 O6.6
5935,"[776, 1819, 2376, 2858, 4397, 4601, 5584, 6310, 7465, 8292, 8293, 8356, 9517, 9518, 9521, 9523, 9524, 10236]",Y1Ba2Cu3O6.6,Y1Ba2Cu3O6.6,"{'Ba': 2.0, 'Cu': 3.0, 'O': 6.6, 'Y': 1.0}",92.0,64.3861111111,14.3314127159,18,Y1 Ba2 Cu3 O6.6
5936,[8117],Y1Ba2Cu3O6.602,Y1Ba2Cu3O6.602,"{'Ba': 2.0, 'Cu': 3.0, 'O': 6.602, 'Y': 1.0}",59.4,59.4,0.0,1,Y1 Ba2 Cu3 O6.602
5937,[6999],Y0.6Pr0.4Ba2Cu3O6.61,Y0.6Pr0.4Ba2Cu3O6.61,"{'Ba': 2.0, 'Cu': 3.0, 'O': 6.61, 'Pr': 0.4, 'Y': 0.6000000000000001}",26.0,26.0,0.0,1,Y0.6 Pr0.4 Ba2 Cu3 O6.61
5938,[7012],Y0.5Pr0.5Ba2Cu3O6.61,Y0.5Pr0.5Ba2Cu3O6.61,"{'Ba': 2.0, 'Cu': 3.0, 'O': 6.61, 'Pr': 0.5, 'Y': 0.5}",4.6,4.6,0.0,1,Y0.5 Pr0.5 Ba2 Cu3 O6.61
5939,"[4660, 4662, 4665, 5019, 7005]",Y1Ba2Cu3O6.61,Y1Ba2Cu3O6.61,"{'Ba': 2.0, 'Cu': 3.0, 'O': 6.61, 'Y': 1.0}",61.38,59.626,2.2977171279,5,Y1 Ba2 Cu3 O6.61
5940,[4692],Sm1Ba2Cu3O6.62,Sm1Ba2Cu3O6.62,"{'Ba': 2.0, 'Cu': 3.0, 'O': 6.62, 'Sm': 1.0}",34.2,34.2,0.0,1,Sm1 Ba2 Cu3 O6.62
5941,"[481, 2045, 4661, 7967]",Y1Ba2Cu3O6.62,Y1Ba2Cu3O6.62,"{'Ba': 2.0, 'Cu': 3.0, 'O': 6.62, 'Y': 1.0}",62.0,51.825,11.2433035626,4,Y1 Ba2 Cu3 O6.62
5942,[3976],Y0.95Sc0.05Ba2Cu3O6.63,Y0.95Sc0.05Ba2Cu3O6.63,"{'Ba': 2.0, 'Cu': 3.0, 'O': 6.63, 'Sc': 0.05, 'Y': 0.9500000000000001}",91.7,91.7,0.0,1,Y0.95 Sc0.05 Ba2 Cu3 O6.63
5943,"[3606, 5022, 5427, 7817, 9754]",Y1Ba2Cu3O6.63,Y1Ba2Cu3O6.63,"{'Ba': 2.0, 'Cu': 3.0, 'O': 6.63, 'Y': 1.0}",76.0,62.02,8.0225681674,5,Y1 Ba2 Cu3 O6.63
5944,[2721],Tm0.5Pr0.5Ba2Cu3O6.64,Tm0.5Pr0.5Ba2Cu3O6.64,"{'Ba': 2.0, 'Cu': 3.0, 'O': 6.64, 'Pr': 0.5, 'Tm': 0.5}",36.0,36.0,0.0,1,Tm0.5 Pr0.5 Ba2 Cu3 O6.64
5945,"[1093, 4600, 4659]",Y1Ba2Cu3O6.64,Y1Ba2Cu3O6.64,"{'Ba': 2.0, 'Cu': 3.0, 'O': 6.64, 'Y': 1.0}",62.25,59.5333333333,2.289225973,3,Y1 Ba2 Cu3 O6.64
5946,[7029],Sm0.9Pr0.1Ba2Cu3O6.65,Sm0.9Pr0.1Ba2Cu3O6.65,"{'Ba': 2.0, 'Cu': 3.0, 'O': 6.65, 'Pr': 0.1, 'Sm': 0.9}",30.6,30.6,0.0,1,Sm0.9 Pr0.1 Ba2 Cu3 O6.65
5947,[4953],Y0.9Pr0.1Ba2Cu3O6.65,Y0.9Pr0.1Ba2Cu3O6.65,"{'Ba': 2.0, 'Cu': 3.0, 'O': 6.65, 'Pr': 0.1, 'Y': 0.9}",56.1,56.1,0.0,1,Y0.9 Pr0.1 Ba2 Cu3 O6.65
5948,[4954],Y0.85Pr0.15Ba2Cu3O6.65,Y0.85Pr0.15Ba2Cu3O6.65,"{'Ba': 2.0, 'Cu': 3.0, 'O': 6.65, 'Pr': 0.15, 'Y': 0.85}",52.9,52.9,0.0,1,Y0.85 Pr0.15 Ba2 Cu3 O6.65
5949,[7018],Sm0.8Pr0.2Ba2Cu3O6.65,Sm0.8Pr0.2Ba2Cu3O6.65,"{'Ba': 2.0, 'Cu': 3.0, 'O': 6.65, 'Pr': 0.2, 'Sm': 0.8}",21.0,21.0,0.0,1,Sm0.8 Pr0.2 Ba2 Cu3 O6.65
5950,[4955],Y0.8Pr0.2Ba2Cu3O6.65,Y0.8Pr0.2Ba2Cu3O6.65,"{'Ba': 2.0, 'Cu': 3.0, 'O': 6.65, 'Pr': 0.2, 'Y': 0.8}",51.7,51.7,0.0,1,Y0.8 Pr0.2 Ba2 Cu3 O6.65
5951,[7033],Sm0.7Pr0.3Ba2Cu3O6.65,Sm0.7Pr0.3Ba2Cu3O6.65,"{'Ba': 2.0, 'Cu': 3.0, 'O': 6.65, 'Pr': 0.30000000000000004, 'Sm': 0.7000000000000001}",10.6,10.6,0.0,1,Sm0.7 Pr0.3 Ba2 Cu3 O6.65
5952,[4956],Y0.7Pr0.3Ba2Cu3O6.65,Y0.7Pr0.3Ba2Cu3O6.65,"{'Ba': 2.0, 'Cu': 3.0, 'O': 6.65, 'Pr': 0.30000000000000004, 'Y': 0.7000000000000001}",46.0,46.0,0.0,1,Y0.7 Pr0.3 Ba2 Cu3 O6.65
5953,[4957],Y0.6Pr0.4Ba2Cu3O6.65,Y0.6Pr0.4Ba2Cu3O6.65,"{'Ba': 2.0, 'Cu': 3.0, 'O': 6.65, 'Pr': 0.4, 'Y': 0.6000000000000001}",38.0,38.0,0.0,1,Y0.6 Pr0.4 Ba2 Cu3 O6.65
5954,[4958],Y0.55Pr0.45Ba2Cu3O6.65,Y0.55Pr0.45Ba2Cu3O6.65,"{'Ba': 2.0, 'Cu': 3.0, 'O': 6.65, 'Pr': 0.45, 'Y': 0.55}",30.7,30.7,0.0,1,Y0.55 Pr0.45 Ba2 Cu3 O6.65
5955,[4959],Y0.5Pr0.5Ba2Cu3O6.65,Y0.5Pr0.5Ba2Cu3O6.65,"{'Ba': 2.0, 'Cu': 3.0, 'O': 6.65, 'Pr': 0.5, 'Y': 0.5}",18.7,18.7,0.0,1,Y0.5 Pr0.5 Ba2 Cu3 O6.65
5956,[7024],Sm1Ba2Cu3O6.65,Sm1Ba2Cu3O6.65,"{'Ba': 2.0, 'Cu': 3.0, 'O': 6.65, 'Sm': 1.0}",32.8,32.8,0.0,1,Sm1 Ba2 Cu3 O6.65
5957,[155],Tm1Ba2Cu3O6.65,Tm1Ba2Cu3O6.65,"{'Ba': 2.0, 'Cu': 3.0, 'O': 6.65, 'Tm': 1.0}",92.5,92.5,0.0,1,Tm1 Ba2 Cu3 O6.65
5958,"[1600, 2092, 4952, 7696, 9741, 10476]",Y1Ba2Cu3O6.65,Y1Ba2Cu3O6.65,"{'Ba': 2.0, 'Cu': 3.0, 'O': 6.65, 'Y': 1.0}",79.3,63.45,7.9458060216,6,Y1 Ba2 Cu3 O6.65
5959,[7000],Y0.6Pr0.4Ba2Cu3O6.66,Y0.6Pr0.4Ba2Cu3O6.66,"{'Ba': 2.0, 'Cu': 3.0, 'O': 6.66, 'Pr': 0.4, 'Y': 0.6000000000000001}",25.4,25.4,0.0,1,Y0.6 Pr0.4 Ba2 Cu3 O6.66
5960,[7013],Y0.5Pr0.5Ba2Cu3O6.66,Y0.5Pr0.5Ba2Cu3O6.66,"{'Ba': 2.0, 'Cu': 3.0, 'O': 6.66, 'Pr': 0.5, 'Y': 0.5}",3.5,3.5,0.0,1,Y0.5 Pr0.5 Ba2 Cu3 O6.66
5961,"[516, 1035, 1389, 7006, 9565, 9645, 9646, 9647, 23864, 23865]",Y1Ba2Cu3O6.66,Y1Ba2Cu3O6.66,"{'Ba': 2.0, 'Cu': 3.0, 'O': 6.66, 'Y': 1.0}",88.9,64.132,9.5597497875,10,Y1 Ba2 Cu3 O6.66
5962,[6938],Ba2Yb1Cu3O6.66,Ba2Yb1Cu3O6.66,"{'Ba': 2.0, 'Cu': 3.0, 'O': 6.66, 'Yb': 1.0}",65.3,65.3,0.0,1,Ba2 Yb1 Cu3 O6.66
5963,[8116],Y1Ba2Cu3O6.666,Y1Ba2Cu3O6.666,"{'Ba': 2.0, 'Cu': 3.0, 'O': 6.666, 'Y': 1.0}",60.5,60.5,0.0,1,Y1 Ba2 Cu3 O6.666
5964,[2720],Yb0.5Pr0.5Ba2Cu3O6.67,Yb0.5Pr0.5Ba2Cu3O6.67,"{'Ba': 2.0, 'Cu': 3.0, 'O': 6.67, 'Pr': 0.5, 'Yb': 0.5}",38.7,38.7,0.0,1,Yb0.5 Pr0.5 Ba2 Cu3 O6.67
5965,"[789, 4599, 5261, 24243]",Y1Ba2Cu3O6.67,Y1Ba2Cu3O6.67,"{'Ba': 2.0, 'Cu': 3.0, 'O': 6.67, 'Y': 1.0}",61.5,58.425,3.5265953837,4,Y1 Ba2 Cu3 O6.67
5966,[2724],Y0.5Pr0.5Ba2Cu3O6.68,Y0.5Pr0.5Ba2Cu3O6.68,"{'Ba': 2.0, 'Cu': 3.0, 'O': 6.68, 'Pr': 0.5, 'Y': 0.5}",27.1,27.1,0.0,1,Y0.5 Pr0.5 Ba2 Cu3 O6.68
5967,"[2046, 4658, 4667, 5649, 7821, 7825, 9761]",Y1Ba2Cu3O6.68,Y1Ba2Cu3O6.68,"{'Ba': 2.0, 'Cu': 3.0, 'O': 6.68, 'Y': 1.0}",67.4,56.1285714286,17.2320891931,7,Y1 Ba2 Cu3 O6.68
5968,"[4598, 9347]",Y1Ba2Cu3O6.69,Y1Ba2Cu3O6.69,"{'Ba': 2.0, 'Cu': 3.0, 'O': 6.69, 'Y': 1.0}",97.0,80.85,16.15,2,Y1 Ba2 Cu3 O6.69
5969,[7019],Sm0.8Pr0.2Ba2Cu3O6.7,Sm0.8Pr0.2Ba2Cu3O6.7,"{'Ba': 2.0, 'Cu': 3.0, 'O': 6.7, 'Pr': 0.2, 'Sm': 0.8}",25.6,25.6,0.0,1,Sm0.8 Pr0.2 Ba2 Cu3 O6.7
5970,"[451, 934, 1251, 1595, 2123, 2381, 3412, 4396, 4670, 5018, 7752, 7927, 8357, 9527, 9528, 10477, 26182]",Y1Ba2Cu3O6.7,Y1Ba2Cu3O6.7,"{'Ba': 2.0, 'Cu': 3.0, 'O': 6.7, 'Y': 1.0}",93.0,70.2776470588,10.0635156583,17,Y1 Ba2 Cu3 O6.7
5971,[8115],Y1Ba2Cu3O6.702,Y1Ba2Cu3O6.702,"{'Ba': 2.0, 'Cu': 3.0, 'O': 6.702, 'Y': 1.0}",69.0,69.0,0.0,1,Y1 Ba2 Cu3 O6.702
5972,[965],Sm1Ba2Cu3O6.709,Sm1Ba2Cu3O6.709,"{'Ba': 2.0, 'Cu': 3.0, 'O': 6.709, 'Sm': 1.0}",59.8,59.8,0.0,1,Sm1 Ba2 Cu3 O6.709
5973,[7014],Y0.5Pr0.5Ba2Cu3O6.71,Y0.5Pr0.5Ba2Cu3O6.71,"{'Ba': 2.0, 'Cu': 3.0, 'O': 6.71, 'Pr': 0.5, 'Y': 0.5}",4.0,4.0,0.0,1,Y0.5 Pr0.5 Ba2 Cu3 O6.71
5974,[10581],Tm1Ba2Cu3O6.71,Tm1Ba2Cu3O6.71,"{'Ba': 2.0, 'Cu': 3.0, 'O': 6.71, 'Tm': 1.0}",78.0,78.0,0.0,1,Tm1 Ba2 Cu3 O6.71
5975,"[2047, 5262, 7007]",Y1Ba2Cu3O6.71,Y1Ba2Cu3O6.71,"{'Ba': 2.0, 'Cu': 3.0, 'O': 6.71, 'Y': 1.0}",67.3,61.9666666667,3.7791827453,3,Y1 Ba2 Cu3 O6.71
5976,[156],Yb1Ba2Cu3O6.71,Yb1Ba2Cu3O6.71,"{'Ba': 2.0, 'Cu': 3.0, 'O': 6.71, 'Yb': 1.0}",87.0,87.0,0.0,1,Yb1 Ba2 Cu3 O6.71
5977,[20049],Tm1Ba2Cu3O6.72,Tm1Ba2Cu3O6.72,"{'Ba': 2.0, 'Cu': 3.0, 'O': 6.72, 'Tm': 1.0}",64.5,64.5,0.0,1,Tm1 Ba2 Cu3 O6.72
5978,"[158, 480, 775, 1094, 5585, 6311, 6917]",Y1Ba2Cu3O6.72,Y1Ba2Cu3O6.72,"{'Ba': 2.0, 'Cu': 3.0, 'O': 6.72, 'Y': 1.0}",93.4,72.0714285714,12.9769811904,7,Y1 Ba2 Cu3 O6.72