,sc_id,supercon_formula,cleaned_formula,material_dict,highest_Tc,average_Tc,std_Tc,entry_count,composition
1095,[20878],Nd1Fe1As1F0.2O0.8,Nd1Fe1As1F0.2O0.8,"{'As': 1.0, 'F': 0.2, 'Fe': 1.0, 'Nd': 1.0, 'O': 0.8}",32.6,32.6,0.0,1,Nd1 Fe1 As1 F0.2 O0.8
1096,"[20549, 21017, 21210, 21245, 21315, 21384, 21911, 22692, 23264]",Sm1Fe1As1F0.2O0.8,Sm1Fe1As1F0.2O0.8,"{'As': 1.0, 'F': 0.2, 'Fe': 1.0, 'O': 0.8, 'Sm': 1.0}",52.5,47.0777777778,7.2525517008,9,Sm1 Fe1 As1 F0.2 O0.8
1097,[21318],Pr1Fe1As1F0.225O0.775,Pr1Fe1As1F0.225O0.775,"{'As': 1.0, 'F': 0.225, 'Fe': 1.0, 'O': 0.775, 'Pr': 1.0}",50.0,50.0,0.0,1,Pr1 Fe1 As1 F0.225 O0.775
1098,[23792],Sm1Fe1As1F0.25O0.7,Sm1Fe1As1F0.25O0.7,"{'As': 1.0, 'F': 0.25, 'Fe': 1.0, 'O': 0.7000000000000001, 'Sm': 1.0}",49.6,49.6,0.0,1,Sm1 Fe1 As1 F0.25 O0.7
1099,[24173],La1Fe0.905Zn0.095As1F0.28O0.68,La1Fe0.905Zn0.095As1F0.28O0.68,"{'As': 1.0, 'F': 0.28, 'Fe': 0.905, 'La': 1.0, 'O': 0.68, 'Zn': 0.095}",3.5,3.5,0.0,1,La1 Fe0.905 Zn0.095 As1 F0.28 O0.68
1100,[24172],La1Fe0.918Zn0.082As1F0.28O0.68,La1Fe0.918Zn0.082As1F0.28O0.68,"{'As': 1.0, 'F': 0.28, 'Fe': 0.918, 'La': 1.0, 'O': 0.68, 'Zn': 0.082}",8.2,8.2,0.0,1,La1 Fe0.918 Zn0.082 As1 F0.28 O0.68
1101,[24171],La1Fe0.951Zn0.049As1F0.28O0.68,La1Fe0.951Zn0.049As1F0.28O0.68,"{'As': 1.0, 'F': 0.28, 'Fe': 0.9510000000000001, 'La': 1.0, 'O': 0.68, 'Zn': 0.049}",1.0,1.0,0.0,1,La1 Fe0.951 Zn0.049 As1 F0.28 O0.68
1102,[24170],La1Fe0.973Zn0.027As1F0.28O0.68,La1Fe0.973Zn0.027As1F0.28O0.68,"{'As': 1.0, 'F': 0.28, 'Fe': 0.973, 'La': 1.0, 'O': 0.68, 'Zn': 0.027}",12.2,12.2,0.0,1,La1 Fe0.973 Zn0.027 As1 F0.28 O0.68
1103,[24169],La1Fe0.982Zn0.018As1F0.28O0.68,La1Fe0.982Zn0.018As1F0.28O0.68,"{'As': 1.0, 'F': 0.28, 'Fe': 0.982, 'La': 1.0, 'O': 0.68, 'Zn': 0.018000000000000002}",19.6,19.6,0.0,1,La1 Fe0.982 Zn0.018 As1 F0.28 O0.68
1104,[24168],La1Fe1As1F0.28O0.68,La1Fe1As1F0.28O0.68,"{'As': 1.0, 'F': 0.28, 'Fe': 1.0, 'La': 1.0, 'O': 0.68}",33.5,33.5,0.0,1,La1 Fe1 As1 F0.28 O0.68
1105,"[20846, 25929, 25930, 25931]",Nd1Fe1As1F0.3O0.7,Nd1Fe1As1F0.3O0.7,"{'As': 1.0, 'F': 0.30000000000000004, 'Fe': 1.0, 'Nd': 1.0, 'O': 0.7000000000000001}",46.4,36.325,14.4667506718,4,Nd1 Fe1 As1 F0.3 O0.7
1106,"[20616, 21912]",Sm1Fe1As1F0.3O0.7,Sm1Fe1As1F0.3O0.7,"{'As': 1.0, 'F': 0.30000000000000004, 'Fe': 1.0, 'O': 0.7000000000000001, 'Sm': 1.0}",53.56,48.53,5.03,2,Sm1 Fe1 As1 F0.3 O0.7
1107,[20580],La1Fe1As1F0.6O0.4,La1Fe1As1F0.6O0.4,"{'As': 1.0, 'F': 0.6000000000000001, 'Fe': 1.0, 'La': 1.0, 'O': 0.4}",40.0,40.0,0.0,1,La1 Fe1 As1 F0.6 O0.4
1108,[21913],Sm1Fe1As1F0.6O0.6,Sm1Fe1As1F0.6O0.6,"{'As': 1.0, 'F': 0.6000000000000001, 'Fe': 1.0, 'O': 0.6000000000000001, 'Sm': 1.0}",55.0,55.0,0.0,1,Sm1 Fe1 As1 F0.6 O0.6
1109,[23875],Sr0.8La0.2Fe1As1F1,Sr0.8La0.2Fe1As1F1,"{'As': 1.0, 'F': 1.0, 'Fe': 1.0, 'La': 0.2, 'Sr': 0.8}",24.4,24.4,0.0,1,Sr0.8 La0.2 Fe1 As1 F1
1110,"[21386, 23876]",Sr0.6La0.4Fe1As1F1,Sr0.6La0.4Fe1As1F1,"{'As': 1.0, 'F': 1.0, 'Fe': 1.0, 'La': 0.4, 'Sr': 0.6000000000000001}",27.05,27.05,0.0,2,Sr0.6 La0.4 Fe1 As1 F1
1111,[21448],Sr0.5Sm0.5Fe1As1F1,Sr0.5Sm0.5Fe1As1F1,"{'As': 1.0, 'F': 1.0, 'Fe': 1.0, 'Sm': 0.5, 'Sr': 0.5}",53.5,53.5,0.0,1,Sr0.5 Sm0.5 Fe1 As1 F1
1112,[21919],Gd1Fe0.67Ir0.33As1O1,Gd1Fe0.67Ir0.33As1O1,"{'As': 1.0, 'Fe': 0.67, 'Gd': 1.0, 'Ir': 0.33, 'O': 1.0}",0.0,0.0,0.0,1,Gd1 Fe0.67 Ir0.33 As1 O1
1113,[21918],Gd1Fe0.7Ir0.3As1O1,Gd1Fe0.7Ir0.3As1O1,"{'As': 1.0, 'Fe': 0.7000000000000001, 'Gd': 1.0, 'Ir': 0.30000000000000004, 'O': 1.0}",11.6,11.6,0.0,1,Gd1 Fe0.7 Ir0.3 As1 O1
1114,[21917],Gd1Fe0.8Ir0.2As1O1,Gd1Fe0.8Ir0.2As1O1,"{'As': 1.0, 'Fe': 0.8, 'Gd': 1.0, 'Ir': 0.2, 'O': 1.0}",17.6,17.6,0.0,1,Gd1 Fe0.8 Ir0.2 As1 O1
1115,[21491],Nd1Fe0.8Rh0.2As1O1,Nd1Fe0.8Rh0.2As1O1,"{'As': 1.0, 'Fe': 0.8, 'Nd': 1.0, 'O': 1.0, 'Rh': 0.2}",10.0,10.0,0.0,1,Nd1 Fe0.8 Rh0.2 As1 O1
1116,[21887],Sm1Fe0.84Ir0.16As1O1,Sm1Fe0.84Ir0.16As1O1,"{'As': 1.0, 'Fe': 0.84, 'Ir': 0.16, 'O': 1.0, 'Sm': 1.0}",17.3,17.3,0.0,1,Sm1 Fe0.84 Ir0.16 As1 O1
1117,[23140],Sm1Fe0.85Ir0.15As1O1,Sm1Fe0.85Ir0.15As1O1,"{'As': 1.0, 'Fe': 0.85, 'Ir': 0.15, 'O': 1.0, 'Sm': 1.0}",16.0,16.0,0.0,1,Sm1 Fe0.85 Ir0.15 As1 O1
1118,[21519],La1Fe0.85Rh0.15As1O1,La1Fe0.85Rh0.15As1O1,"{'As': 1.0, 'Fe': 0.85, 'La': 1.0, 'O': 1.0, 'Rh': 0.15}",14.0,14.0,0.0,1,La1 Fe0.85 Rh0.15 As1 O1
1119,[21490],Nd1Fe0.85Rh0.15As1O1,Nd1Fe0.85Rh0.15As1O1,"{'As': 1.0, 'Fe': 0.85, 'Nd': 1.0, 'O': 1.0, 'Rh': 0.15}",14.7,14.7,0.0,1,Nd1 Fe0.85 Rh0.15 As1 O1
1120,[21214],La1Fe0.875Ir0.125As1O1,La1Fe0.875Ir0.125As1O1,"{'As': 1.0, 'Fe': 0.875, 'Ir': 0.125, 'La': 1.0, 'O': 1.0}",4.5600000000000005,4.5600000000000005,0.0,1,La1 Fe0.875 Ir0.125 As1 O1
1121,[22623],Sm1Fe0.875Ir0.125As1O1,Sm1Fe0.875Ir0.125As1O1,"{'As': 1.0, 'Fe': 0.875, 'Ir': 0.125, 'O': 1.0, 'Sm': 1.0}",16.5,16.5,0.0,1,Sm1 Fe0.875 Ir0.125 As1 O1
1122,[21886],Sm1Fe0.89Ir0.11As1O1,Sm1Fe0.89Ir0.11As1O1,"{'As': 1.0, 'Fe': 0.89, 'Ir': 0.11, 'O': 1.0, 'Sm': 1.0}",18.3,18.3,0.0,1,Sm1 Fe0.89 Ir0.11 As1 O1
1123,[21213],La1Fe0.9Ir0.1As1O1,La1Fe0.9Ir0.1As1O1,"{'As': 1.0, 'Fe': 0.9, 'Ir': 0.1, 'La': 1.0, 'O': 1.0}",10.9,10.9,0.0,1,La1 Fe0.9 Ir0.1 As1 O1
1124,[21518],La1Fe0.9Rh0.1As1O1,La1Fe0.9Rh0.1As1O1,"{'As': 1.0, 'Fe': 0.9, 'La': 1.0, 'O': 1.0, 'Rh': 0.1}",14.0,14.0,0.0,1,La1 Fe0.9 Rh0.1 As1 O1
1125,"[21468, 21489]",Nd1Fe0.9Rh0.1As1O1,Nd1Fe0.9Rh0.1As1O1,"{'As': 1.0, 'Fe': 0.9, 'Nd': 1.0, 'O': 1.0, 'Rh': 0.1}",16.6,15.8,0.8,2,Nd1 Fe0.9 Rh0.1 As1 O1
1126,[22622],Sm1Fe0.9Rh0.1As1O1,Sm1Fe0.9Rh0.1As1O1,"{'As': 1.0, 'Fe': 0.9, 'O': 1.0, 'Rh': 0.1, 'Sm': 1.0}",9.6,9.6,0.0,1,Sm1 Fe0.9 Rh0.1 As1 O1
1127,[23647],Sm1Fe0.92Ni0.08As1O1,Sm1Fe0.92Ni0.08As1O1,"{'As': 1.0, 'Fe': 0.92, 'Ni': 0.08, 'O': 1.0, 'Sm': 1.0}",6.0,6.0,0.0,1,Sm1 Fe0.92 Ni0.08 As1 O1
1128,[21212],La1Fe0.925Ir0.075As1O1,La1Fe0.925Ir0.075As1O1,"{'As': 1.0, 'Fe': 0.925, 'Ir': 0.075, 'La': 1.0, 'O': 1.0}",11.85,11.85,0.0,1,La1 Fe0.925 Ir0.075 As1 O1
1129,[21885],Sm1Fe0.94Ir0.06As1O1,Sm1Fe0.94Ir0.06As1O1,"{'As': 1.0, 'Fe': 0.9400000000000001, 'Ir': 0.06, 'O': 1.0, 'Sm': 1.0}",18.0,18.0,0.0,1,Sm1 Fe0.94 Ir0.06 As1 O1
1130,[23646],Sm1Fe0.94Ni0.06As1O1,Sm1Fe0.94Ni0.06As1O1,"{'As': 1.0, 'Fe': 0.9400000000000001, 'Ni': 0.06, 'O': 1.0, 'Sm': 1.0}",9.0,9.0,0.0,1,Sm1 Fe0.94 Ni0.06 As1 O1
1131,[23514],Pr0.8Sr0.2Fe0.94Zn0.06As1O1,Pr0.8Sr0.2Fe0.94Zn0.06As1O1,"{'As': 1.0, 'Fe': 0.9400000000000001, 'O': 1.0, 'Pr': 0.8, 'Sr': 0.2, 'Zn': 0.06}",12.0,12.0,0.0,1,Pr0.8 Sr0.2 Fe0.94 Zn0.06 As1 O1
1132,[21916],Gd1Fe0.95Ir0.05As1O1,Gd1Fe0.95Ir0.05As1O1,"{'As': 1.0, 'Fe': 0.9500000000000001, 'Gd': 1.0, 'Ir': 0.05, 'O': 1.0}",0.0,0.0,0.0,1,Gd1 Fe0.95 Ir0.05 As1 O1
1133,[21211],La1Fe0.95Ir0.05As1O1,La1Fe0.95Ir0.05As1O1,"{'As': 1.0, 'Fe': 0.9500000000000001, 'Ir': 0.05, 'La': 1.0, 'O': 1.0}",7.18,7.18,0.0,1,La1 Fe0.95 Ir0.05 As1 O1
1134,[21517],La1Fe0.95Rh0.05As1O1,La1Fe0.95Rh0.05As1O1,"{'As': 1.0, 'Fe': 0.9500000000000001, 'La': 1.0, 'O': 1.0, 'Rh': 0.05}",12.0,12.0,0.0,1,La1 Fe0.95 Rh0.05 As1 O1
1135,[21488],Nd1Fe0.95Rh0.05As1O1,Nd1Fe0.95Rh0.05As1O1,"{'As': 1.0, 'Fe': 0.9500000000000001, 'Nd': 1.0, 'O': 1.0, 'Rh': 0.05}",7.1,7.1,0.0,1,Nd1 Fe0.95 Rh0.05 As1 O1
1136,[21049],La1Fe0.96Ni0.04As1O1,La1Fe0.96Ni0.04As1O1,"{'As': 1.0, 'Fe': 0.96, 'La': 1.0, 'Ni': 0.04, 'O': 1.0}",6.5,6.5,0.0,1,La1 Fe0.96 Ni0.04 As1 O1
1137,[23645],Sm1Fe0.96Ni0.04As1O1,Sm1Fe0.96Ni0.04As1O1,"{'As': 1.0, 'Fe': 0.96, 'Ni': 0.04, 'O': 1.0, 'Sm': 1.0}",7.5,7.5,0.0,1,Sm1 Fe0.96 Ni0.04 As1 O1
1138,[23513],Pr0.8Sr0.2Fe0.97Zn0.03As1O1,Pr0.8Sr0.2Fe0.97Zn0.03As1O1,"{'As': 1.0, 'Fe': 0.97, 'O': 1.0, 'Pr': 0.8, 'Sr': 0.2, 'Zn': 0.03}",13.0,13.0,0.0,1,Pr0.8 Sr0.2 Fe0.97 Zn0.03 As1 O1
1139,[21457],Na1Fe0.975Ni0.025As1,Na1Fe0.975Ni0.025As1,"{'As': 1.0, 'Fe': 0.975, 'Na': 1.0, 'Ni': 0.025}",15.4,15.4,0.0,1,Na1 Fe0.975 Ni0.025 As1
1140,[21834],La1Fe0.98Zn0.02As1O0.85,La1Fe0.98Zn0.02As1O0.85,"{'As': 1.0, 'Fe': 0.98, 'La': 1.0, 'O': 0.85, 'Zn': 0.02}",4.32,4.32,0.0,1,La1 Fe0.98 Zn0.02 As1 O0.85
1141,[22479],Li1Fe0.98Ni0.02As1,Li1Fe0.98Ni0.02As1,"{'As': 1.0, 'Fe': 0.98, 'Li': 1.0, 'Ni': 0.02}",10.58,10.58,0.0,1,Li1 Fe0.98 Ni0.02 As1
1142,[24995],Li1Fe0.981V0.019As1,Li1Fe0.981V0.019As1,"{'As': 1.0, 'Fe': 0.981, 'Li': 1.0, 'V': 0.019}",3.0,3.0,0.0,1,Li1 Fe0.981 V0.019 As1
1143,[21833],La1Fe0.985Zn0.015As1O0.85,La1Fe0.985Zn0.015As1O0.85,"{'As': 1.0, 'Fe': 0.985, 'La': 1.0, 'O': 0.85, 'Zn': 0.015}",6.01,6.01,0.0,1,La1 Fe0.985 Zn0.015 As1 O0.85
1144,[24994],Li1Fe0.986V0.014As1,Li1Fe0.986V0.014As1,"{'As': 1.0, 'Fe': 0.986, 'Li': 1.0, 'V': 0.014}",5.7,5.7,0.0,1,Li1 Fe0.986 V0.014 As1
1145,[21832],La1Fe0.99Zn0.01As1O0.85,La1Fe0.99Zn0.01As1O0.85,"{'As': 1.0, 'Fe': 0.99, 'La': 1.0, 'O': 0.85, 'Zn': 0.01}",10.04,10.04,0.0,1,La1 Fe0.99 Zn0.01 As1 O0.85
1146,[22478],Li1Fe0.99Ni0.01As1,Li1Fe0.99Ni0.01As1,"{'As': 1.0, 'Fe': 0.99, 'Li': 1.0, 'Ni': 0.01}",13.35,13.35,0.0,1,Li1 Fe0.99 Ni0.01 As1
1147,[24993],Li1Fe0.993V0.007As1,Li1Fe0.993V0.007As1,"{'As': 1.0, 'Fe': 0.993, 'Li': 1.0, 'V': 0.007}",12.2,12.2,0.0,1,Li1 Fe0.993 V0.007 As1
1148,[21831],La1Fe0.995Zn0.005As1O0.85,La1Fe0.995Zn0.005As1O0.85,"{'As': 1.0, 'Fe': 0.995, 'La': 1.0, 'O': 0.85, 'Zn': 0.005}",14.1,14.1,0.0,1,La1 Fe0.995 Zn0.005 As1 O0.85
1149,[22402],La0.81Gd0.06Sr0.13Fe1As1O1,La0.81Gd0.06Sr0.13Fe1As1O1,"{'As': 1.0, 'Fe': 1.0, 'Gd': 0.06, 'La': 0.81, 'O': 1.0, 'Sr': 0.13}",17.1,17.1,0.0,1,La0.81 Gd0.06 Sr0.13 Fe1 As1 O1
1150,"[23776, 23994]",Gd1Fe1As1H0.1O0.9,Gd1Fe1As1H0.1O0.9,"{'As': 1.0, 'Fe': 1.0, 'Gd': 1.0, 'H': 0.1, 'O': 0.9}",56.2,55.6,0.6000000000000001,2,Gd1 Fe1 As1 H0.1 O0.9
1151,[23777],Gd1Fe1As1H0.3O0.7,Gd1Fe1As1H0.3O0.7,"{'As': 1.0, 'Fe': 1.0, 'Gd': 1.0, 'H': 0.30000000000000004, 'O': 0.7000000000000001}",45.9,45.9,0.0,1,Gd1 Fe1 As1 H0.3 O0.7
1152,"[20933, 22041]",Gd1Fe1As1O0.7,Gd1Fe1As1O0.7,"{'As': 1.0, 'Fe': 1.0, 'Gd': 1.0, 'O': 0.7000000000000001}",53.6,53.6,0.0,2,Gd1 Fe1 As1 O0.7
1153,[20551],Gd1Fe1As1O0.85,Gd1Fe1As1O0.85,"{'As': 1.0, 'Fe': 1.0, 'Gd': 1.0, 'O': 0.85}",53.5,53.5,0.0,1,Gd1 Fe1 As1 O0.85
1154,[24231],Sm1Fe1As1H0.03O0.97,Sm1Fe1As1H0.03O0.97,"{'As': 1.0, 'Fe': 1.0, 'H': 0.03, 'O': 0.97, 'Sm': 1.0}",0.2,0.2,0.0,1,Sm1 Fe1 As1 H0.03 O0.97
1155,[23778],Sm1Fe1As1H0.066O0.934,Sm1Fe1As1H0.066O0.934,"{'As': 1.0, 'Fe': 1.0, 'H': 0.066, 'O': 0.934, 'Sm': 1.0}",43.3,43.3,0.0,1,Sm1 Fe1 As1 H0.066 O0.934
1156,[23771],La1Fe1As1H0.08O0.92,La1Fe1As1H0.08O0.92,"{'As': 1.0, 'Fe': 1.0, 'H': 0.08, 'La': 1.0, 'O': 0.92}",28.7,28.7,0.0,1,La1 Fe1 As1 H0.08 O0.92
1157,[22025],Sm1Fe1As1H0.12O0.77,Sm1Fe1As1H0.12O0.77,"{'As': 1.0, 'Fe': 1.0, 'H': 0.12, 'O': 0.77, 'Sm': 1.0}",54.2,54.2,0.0,1,Sm1 Fe1 As1 H0.12 O0.77
1158,[24753],Y0.95La0.05Fe1As1H0.15O1-z,Y0.95La0.05Fe1As1H0.15O1,"{'As': 1.0, 'Fe': 1.0, 'H': 0.15, 'La': 0.05, 'O': 1.0, 'Y': 0.9500000000000001}",50.0,50.0,0.0,1,Y0.95 La0.05 Fe1 As1 H0.15 O1
1159,[22971],La1Fe1As1H0.15,La1Fe1As1H0.15,"{'As': 1.0, 'Fe': 1.0, 'H': 0.15, 'La': 1.0}",27.5,27.5,0.0,1,La1 Fe1 As1 H0.15
1160,[24232],Sm1Fe1As1H0.19O0.81,Sm1Fe1As1H0.19O0.81,"{'As': 1.0, 'Fe': 1.0, 'H': 0.19, 'O': 0.81, 'Sm': 1.0}",55.3,55.3,0.0,1,Sm1 Fe1 As1 H0.19 O0.81
1161,[23772],La1Fe1As1H0.21O0.79,La1Fe1As1H0.21O0.79,"{'As': 1.0, 'Fe': 1.0, 'H': 0.21, 'La': 1.0, 'O': 0.79}",17.8,17.8,0.0,1,La1 Fe1 As1 H0.21 O0.79
1162,[24254],Sm1Fe1As1H0.22O0.78,Sm1Fe1As1H0.22O0.78,"{'As': 1.0, 'Fe': 1.0, 'H': 0.22, 'O': 0.78, 'Sm': 1.0}",50.0,50.0,0.0,1,Sm1 Fe1 As1 H0.22 O0.78
1163,[23775],La1Fe1As1H0.24O0.76,La1Fe1As1H0.24O0.76,"{'As': 1.0, 'Fe': 1.0, 'H': 0.24, 'La': 1.0, 'O': 0.76}",30.1,30.1,0.0,1,La1 Fe1 As1 H0.24 O0.76
1164,[25542],La1Fe1As1H0.25O0.75,La1Fe1As1H0.25O0.75,"{'As': 1.0, 'Fe': 1.0, 'H': 0.25, 'La': 1.0, 'O': 0.75}",15.4,15.4,0.0,1,La1 Fe1 As1 H0.25 O0.75
1165,"[23779, 23995]",Sm1Fe1As1H0.25O0.75,Sm1Fe1As1H0.25O0.75,"{'As': 1.0, 'Fe': 1.0, 'H': 0.25, 'O': 0.75, 'Sm': 1.0}",55.0,54.85,0.15,2,Sm1 Fe1 As1 H0.25 O0.75
1166,[25544],La1Fe1As1H0.3O0.3,La1Fe1As1H0.3O0.3,"{'As': 1.0, 'Fe': 1.0, 'H': 0.30000000000000004, 'La': 1.0, 'O': 0.30000000000000004}",35.0,35.0,0.0,1,La1 Fe1 As1 H0.3 O0.3
1167,[23773],La1Fe1As1H0.3O0.7,La1Fe1As1H0.3O0.7,"{'As': 1.0, 'Fe': 1.0, 'H': 0.30000000000000004, 'La': 1.0, 'O': 0.7000000000000001}",38.0,38.0,0.0,1,La1 Fe1 As1 H0.3 O0.7
1168,[22024],Sm1Fe1As1H0.3O0.6,Sm1Fe1As1H0.3O0.6,"{'As': 1.0, 'Fe': 1.0, 'H': 0.30000000000000004, 'O': 0.6000000000000001, 'Sm': 1.0}",51.4,51.4,0.0,1,Sm1 Fe1 As1 H0.3 O0.6
1169,[24233],Sm1Fe1As1H0.34O0.64,Sm1Fe1As1H0.34O0.64,"{'As': 1.0, 'Fe': 1.0, 'H': 0.34, 'O': 0.64, 'Sm': 1.0}",51.8,51.8,0.0,1,Sm1 Fe1 As1 H0.34 O0.64
1170,[22972],La1Fe1As1H0.35,La1Fe1As1H0.35,"{'As': 1.0, 'Fe': 1.0, 'H': 0.35000000000000003, 'La': 1.0}",29.0,29.0,0.0,1,La1 Fe1 As1 H0.35
1171,[23997],La1Fe1As1H0.36O0.64,La1Fe1As1H0.36O0.64,"{'As': 1.0, 'Fe': 1.0, 'H': 0.36, 'La': 1.0, 'O': 0.64}",36.0,36.0,0.0,1,La1 Fe1 As1 H0.36 O0.64
1172,[24465],La1Fe1As1H0.4O0.6,La1Fe1As1H0.4O0.6,"{'As': 1.0, 'Fe': 1.0, 'H': 0.4, 'La': 1.0, 'O': 0.6000000000000001}",23.9,23.9,0.0,1,La1 Fe1 As1 H0.4 O0.6
1173,[23780],Sm1Fe1As1H0.4O0.6,Sm1Fe1As1H0.4O0.6,"{'As': 1.0, 'Fe': 1.0, 'H': 0.4, 'O': 0.6000000000000001, 'Sm': 1.0}",46.4,46.4,0.0,1,Sm1 Fe1 As1 H0.4 O0.6
1174,[24464],La1Fe1As1H0.41O0.59,La1Fe1As1H0.41O0.59,"{'As': 1.0, 'Fe': 1.0, 'H': 0.41000000000000003, 'La': 1.0, 'O': 0.59}",19.5,19.5,0.0,1,La1 Fe1 As1 H0.41 O0.59
1175,[24463],La1Fe1As1H0.42O0.58,La1Fe1As1H0.42O0.58,"{'As': 1.0, 'Fe': 1.0, 'H': 0.42, 'La': 1.0, 'O': 0.58}",20.3,20.3,0.0,1,La1 Fe1 As1 H0.42 O0.58
1176,[24234],Sm1Fe1As1H0.43O0.57,Sm1Fe1As1H0.43O0.57,"{'As': 1.0, 'Fe': 1.0, 'H': 0.43, 'O': 0.5700000000000001, 'Sm': 1.0}",45.0,45.0,0.0,1,Sm1 Fe1 As1 H0.43 O0.57
1177,[23998],La1Fe1As1H0.44O0.56,La1Fe1As1H0.44O0.56,"{'As': 1.0, 'Fe': 1.0, 'H': 0.44, 'La': 1.0, 'O': 0.56}",21.0,21.0,0.0,1,La1 Fe1 As1 H0.44 O0.56
1178,[24462],La1Fe1As1H0.45O0.55,La1Fe1As1H0.45O0.55,"{'As': 1.0, 'Fe': 1.0, 'H': 0.45, 'La': 1.0, 'O': 0.55}",0.0,0.0,0.0,1,La1 Fe1 As1 H0.45 O0.55
1179,[23774],La1Fe1As1H0.46O0.54,La1Fe1As1H0.46O0.54,"{'As': 1.0, 'Fe': 1.0, 'H': 0.46, 'La': 1.0, 'O': 0.54}",36.2,36.2,0.0,1,La1 Fe1 As1 H0.46 O0.54
1180,[22973],La1Fe1As1H0.55,La1Fe1As1H0.55,"{'As': 1.0, 'Fe': 1.0, 'H': 0.55, 'La': 1.0}",30.5,30.5,0.0,1,La1 Fe1 As1 H0.55
1181,[24658],La1Fe1As1H0.58O0.58,La1Fe1As1H0.58O0.58,"{'As': 1.0, 'Fe': 1.0, 'H': 0.58, 'La': 1.0, 'O': 0.58}",32.0,32.0,0.0,1,La1 Fe1 As1 H0.58 O0.58
1182,[22030],La1Fe1As1H0.6O0.6,La1Fe1As1H0.6O0.6,"{'As': 1.0, 'Fe': 1.0, 'H': 0.6000000000000001, 'La': 1.0, 'O': 0.6000000000000001}",35.0,35.0,0.0,1,La1 Fe1 As1 H0.6 O0.6
1183,[22032],Pr1Fe1As1H0.6O0.6,Pr1Fe1As1H0.6O0.6,"{'As': 1.0, 'Fe': 1.0, 'H': 0.6000000000000001, 'O': 0.6000000000000001, 'Pr': 1.0}",49.7,49.7,0.0,1,Pr1 Fe1 As1 H0.6 O0.6
1184,[22974],La1Fe1As1H0.7,La1Fe1As1H0.7,"{'As': 1.0, 'Fe': 1.0, 'H': 0.7000000000000001, 'La': 1.0}",32.5,32.5,0.0,1,La1 Fe1 As1 H0.7
1185,[22975],La1Fe1As1H0.85,La1Fe1As1H0.85,"{'As': 1.0, 'Fe': 1.0, 'H': 0.85, 'La': 1.0}",35.0,35.0,0.0,1,La1 Fe1 As1 H0.85
1186,[21055],Ho1Fe1As1O0.85,Ho1Fe1As1O0.85,"{'As': 1.0, 'Fe': 1.0, 'Ho': 1.0, 'O': 0.85}",49.1,49.1,0.0,1,Ho1 Fe1 As1 O0.85
1187,[21613],La0.5Y0.5Fe1As1O0.6,La0.5Y0.5Fe1As1O0.6,"{'As': 1.0, 'Fe': 1.0, 'La': 0.5, 'O': 0.6000000000000001, 'Y': 0.5}",39.3,39.3,0.0,1,La0.5 Y0.5 Fe1 As1 O0.6
1188,[21612],La0.6Y0.4Fe1As1O0.6,La0.6Y0.4Fe1As1O0.6,"{'As': 1.0, 'Fe': 1.0, 'La': 0.6000000000000001, 'O': 0.6000000000000001, 'Y': 0.4}",38.8,38.8,0.0,1,La0.6 Y0.4 Fe1 As1 O0.6
1189,[21611],La0.7Y0.3Fe1As1O0.6,La0.7Y0.3Fe1As1O0.6,"{'As': 1.0, 'Fe': 1.0, 'La': 0.7000000000000001, 'O': 0.6000000000000001, 'Y': 0.30000000000000004}",35.6,35.6,0.0,1,La0.7 Y0.3 Fe1 As1 O0.6
1190,[21481],La0.77Sm0.1Sr0.13Fe1As1O1,La0.77Sm0.1Sr0.13Fe1As1O1,"{'As': 1.0, 'Fe': 1.0, 'La': 0.77, 'O': 1.0, 'Sm': 0.1, 'Sr': 0.13}",18.0,18.0,0.0,1,La0.77 Sm0.1 Sr0.13 Fe1 As1 O1
1191,[21610],La0.8Y0.2Fe1As1O0.6,La0.8Y0.2Fe1As1O0.6,"{'As': 1.0, 'Fe': 1.0, 'La': 0.8, 'O': 0.6000000000000001, 'Y': 0.2}",32.5,32.5,0.0,1,La0.8 Y0.2 Fe1 As1 O0.6
1192,[24657],La0.8Y0.2Fe1As1O0.7,La0.8Y0.2Fe1As1O0.7,"{'As': 1.0, 'Fe': 1.0, 'La': 0.8, 'O': 0.7000000000000001, 'Y': 0.2}",34.0,34.0,0.0,1,La0.8 Y0.2 Fe1 As1 O0.7
1193,[21276],La0.8Sr0.2Fe1As1O1,La0.8Sr0.2Fe1As1O1,"{'As': 1.0, 'Fe': 1.0, 'La': 0.8, 'O': 1.0, 'Sr': 0.2}",24.9,24.9,0.0,1,La0.8 Sr0.2 Fe1 As1 O1
1194,[22401],La0.81Sm0.06Sr0.13Fe1As1O1,La0.81Sm0.06Sr0.13Fe1As1O1,"{'As': 1.0, 'Fe': 1.0, 'La': 0.81, 'O': 1.0, 'Sm': 0.06, 'Sr': 0.13}",18.5,18.5,0.0,1,La0.81 Sm0.06 Sr0.13 Fe1 As1 O1
1195,"[20683, 21275]",La0.85Sr0.15Fe1As1O1-z,La0.85Sr0.15Fe1As1O1,"{'As': 1.0, 'Fe': 1.0, 'La': 0.85, 'O': 1.0, 'Sr': 0.15}",25.4,24.2,1.2,2,La0.85 Sr0.15 Fe1 As1 O1
1196,"[20477, 21274, 21480]",La0.87Sr0.13Fe1As1O1,La0.87Sr0.13Fe1As1O1,"{'As': 1.0, 'Fe': 1.0, 'La': 0.87, 'O': 1.0, 'Sr': 0.13}",25.9,22.0666666667,2.7133415233,3,La0.87 Sr0.13 Fe1 As1 O1
1197,[21273],La0.89Sr0.11Fe1As1O1,La0.89Sr0.11Fe1As1O1,"{'As': 1.0, 'Fe': 1.0, 'La': 0.89, 'O': 1.0, 'Sr': 0.11}",25.5,25.5,0.0,1,La0.89 Sr0.11 Fe1 As1 O1
1198,[21609],La0.9Y0.1Fe1As1O0.6,La0.9Y0.1Fe1As1O0.6,"{'As': 1.0, 'Fe': 1.0, 'La': 0.9, 'O': 0.6000000000000001, 'Y': 0.1}",25.6,25.6,0.0,1,La0.9 Y0.1 Fe1 As1 O0.6
1199,[21272],La0.9Sr0.1Fe1As1O1,La0.9Sr0.1Fe1As1O1,"{'As': 1.0, 'Fe': 1.0, 'La': 0.9, 'O': 1.0, 'Sr': 0.1}",24.6,24.6,0.0,1,La0.9 Sr0.1 Fe1 As1 O1
1200,[21271],La0.92Sr0.08Fe1As1O1,La0.92Sr0.08Fe1As1O1,"{'As': 1.0, 'Fe': 1.0, 'La': 0.92, 'O': 1.0, 'Sr': 0.08}",18.9,18.9,0.0,1,La0.92 Sr0.08 Fe1 As1 O1
1201,[21270],La0.96Sr0.04Fe1As1O1,La0.96Sr0.04Fe1As1O1,"{'As': 1.0, 'Fe': 1.0, 'La': 0.96, 'O': 1.0, 'Sr': 0.04}",3.65,3.65,0.0,1,La0.96 Sr0.04 Fe1 As1 O1
1202,"[20766, 21614]",La1Fe1As1O0.6,La1Fe1As1O0.6,"{'As': 1.0, 'Fe': 1.0, 'La': 1.0, 'O': 0.6000000000000001}",27.0,24.4,2.6,2,La1 Fe1 As1 O0.6
1203,"[20928, 22036]",La1Fe1As1O0.7,La1Fe1As1O0.7,"{'As': 1.0, 'Fe': 1.0, 'La': 1.0, 'O': 0.7000000000000001}",28.4,28.4,0.0,2,La1 Fe1 As1 O0.7
1204,"[20561, 21830, 22970]",La1Fe1As1O0.85,La1Fe1As1O0.85,"{'As': 1.0, 'Fe': 1.0, 'La': 1.0, 'O': 0.85}",28.3,25.7666666667,1.8372685039,3,La1 Fe1 As1 O0.85
1205,[22743],La1Fe1As1O0.89,La1Fe1As1O0.89,"{'As': 1.0, 'Fe': 1.0, 'La': 1.0, 'O': 0.89}",27.8,27.8,0.0,1,La1 Fe1 As1 O0.89
1206,"[21152, 21442]",La1Fe1As1O1.0,La1Fe1As1O1.0,"{'As': 1.0, 'Fe': 1.0, 'La': 1.0, 'O': 1.0}",21.0,15.6,5.4,2,La1 Fe1 As1 O1
1207,[21149],Li0.8Fe1As1,Li0.8Fe1As1,"{'As': 1.0, 'Fe': 1.0, 'Li': 0.8}",17.6,17.6,0.0,1,Li0.8 Fe1 As1
1208,"[20636, 20952, 20953, 21150, 21752, 22223, 22336, 22337, 22338, 22339, 22405, 22406, 22445, 22446, 22447, 22471, 22472, 22550, 22608, 23075, 23165, 23222, 23554, 24595, 24992, 26267]",Li1Fe1As1,Li1Fe1As1,"{'As': 1.0, 'Fe': 1.0, 'Li': 1.0}",18.3,16.7730769231,1.3110646561000001,26,Li1 Fe1 As1
1209,[21151],Li1.1Fe1As1,Li1.1Fe1As1,"{'As': 1.0, 'Fe': 1.0, 'Li': 1.1}",20.0,20.0,0.0,1,Li1.1 Fe1 As1
1210,[24519],Sr2V0.9Mg0.1Fe1As1O3,Sr2V0.9Mg0.1Fe1As1O3,"{'As': 1.0, 'Fe': 1.0, 'Mg': 0.1, 'O': 3.0, 'Sr': 2.0, 'V': 0.9}",30.0,30.0,0.0,1,Sr2 V0.9 Mg0.1 Fe1 As1 O3
1211,[22292],Sr2Mg0.3Ti0.7Fe1As1O3,Sr2Mg0.3Ti0.7Fe1As1O3,"{'As': 1.0, 'Fe': 1.0, 'Mg': 0.30000000000000004, 'O': 3.0, 'Sr': 2.0, 'Ti': 0.7000000000000001}",36.7,36.7,0.0,1,Sr2 Mg0.3 Ti0.7 Fe1 As1 O3
1212,[21099],Na0.5Fe1As1,Na0.5Fe1As1,"{'As': 1.0, 'Fe': 1.0, 'Na': 0.5}",12.0,12.0,0.0,1,Na0.5 Fe1 As1
1213,[22594],Na0.86Fe1As1,Na0.86Fe1As1,"{'As': 1.0, 'Fe': 1.0, 'Na': 0.86}",26.0,26.0,0.0,1,Na0.86 Fe1 As1
1214,"[21098, 22407]",Na0.9Fe1As1,Na0.9Fe1As1,"{'As': 1.0, 'Fe': 1.0, 'Na': 0.9}",18.0,12.5,5.5,2,Na0.9 Fe1 As1
1215,"[21096, 21097, 21129, 21451, 22836, 22837, 22929, 23548, 23593, 25207, 25631]",Na1Fe1As1,Na1Fe1As1,"{'As': 1.0, 'Fe': 1.0, 'Na': 1.0}",26.0,11.4418181818,5.1314747449,11,Na1 Fe1 As1
1216,[25632],Na1Fe1Ni0.004As1,Na1Fe1Ni0.004As1,"{'As': 1.0, 'Fe': 1.0, 'Na': 1.0, 'Ni': 0.004}",8.42,8.42,0.0,1,Na1 Fe1 Ni0.004 As1
1217,[25633],Na1Fe1Ni0.006As1,Na1Fe1Ni0.006As1,"{'As': 1.0, 'Fe': 1.0, 'Na': 1.0, 'Ni': 0.006}",12.6,12.6,0.0,1,Na1 Fe1 Ni0.006 As1
1218,[25634],Na1Fe1Ni0.008As1,Na1Fe1Ni0.008As1,"{'As': 1.0, 'Fe': 1.0, 'Na': 1.0, 'Ni': 0.008}",17.4,17.4,0.0,1,Na1 Fe1 Ni0.008 As1