,sc_id,supercon_formula,cleaned_formula,material_dict,highest_Tc,average_Tc,std_Tc,entry_count,composition
5979,[3954],Y1Ba2Cu3O6.729,Y1Ba2Cu3O6.729,"{'Ba': 2.0, 'Cu': 3.0, 'O': 6.729, 'Y': 1.0}",56.8,56.8,0.0,1,Y1 Ba2 Cu3 O6.729
5980,"[3666, 4691]",Sm1Ba2Cu3O6.73,Sm1Ba2Cu3O6.73,"{'Ba': 2.0, 'Cu': 3.0, 'O': 6.73, 'Sm': 1.0}",45.0,44.95,0.05,2,Sm1 Ba2 Cu3 O6.73
5981,"[4597, 4669, 5024, 5263, 6215, 9742, 9764]",Y1Ba2Cu3O6.73,Y1Ba2Cu3O6.73,"{'Ba': 2.0, 'Cu': 3.0, 'O': 6.73, 'Y': 1.0}",80.0,71.7642857143,6.5477757557,7,Y1 Ba2 Cu3 O6.73
5982,[964],Sm1Ba2Cu3O6.734,Sm1Ba2Cu3O6.734,"{'Ba': 2.0, 'Cu': 3.0, 'O': 6.734, 'Sm': 1.0}",67.6,67.6,0.0,1,Sm1 Ba2 Cu3 O6.734
5983,"[221, 5586, 6312, 6578]",Y1Ba2Cu3O6.74,Y1Ba2Cu3O6.74,"{'Ba': 2.0, 'Cu': 3.0, 'O': 6.74, 'Y': 1.0}",91.0,78.275,11.3589997359,4,Y1 Ba2 Cu3 O6.74
5984,[7030],Sm0.9Pr0.1Ba2Cu3O6.75,Sm0.9Pr0.1Ba2Cu3O6.75,"{'Ba': 2.0, 'Cu': 3.0, 'O': 6.75, 'Pr': 0.1, 'Sm': 0.9}",36.3,36.3,0.0,1,Sm0.9 Pr0.1 Ba2 Cu3 O6.75
5985,[7461],Y0.9Pr0.1Ba2Cu3O6.75,Y0.9Pr0.1Ba2Cu3O6.75,"{'Ba': 2.0, 'Cu': 3.0, 'O': 6.75, 'Pr': 0.1, 'Y': 0.9}",52.2,52.2,0.0,1,Y0.9 Pr0.1 Ba2 Cu3 O6.75
5986,[7020],Sm0.8Pr0.2Ba2Cu3O6.75,Sm0.8Pr0.2Ba2Cu3O6.75,"{'Ba': 2.0, 'Cu': 3.0, 'O': 6.75, 'Pr': 0.2, 'Sm': 0.8}",23.4,23.4,0.0,1,Sm0.8 Pr0.2 Ba2 Cu3 O6.75
5987,[7462],Y0.8Pr0.2Ba2Cu3O6.75,Y0.8Pr0.2Ba2Cu3O6.75,"{'Ba': 2.0, 'Cu': 3.0, 'O': 6.75, 'Pr': 0.2, 'Y': 0.8}",41.5,41.5,0.0,1,Y0.8 Pr0.2 Ba2 Cu3 O6.75
5988,[7034],Sm0.7Pr0.3Ba2Cu3O6.75,Sm0.7Pr0.3Ba2Cu3O6.75,"{'Ba': 2.0, 'Cu': 3.0, 'O': 6.75, 'Pr': 0.30000000000000004, 'Sm': 0.7000000000000001}",6.6,6.6,0.0,1,Sm0.7 Pr0.3 Ba2 Cu3 O6.75
5989,[7463],Y0.7Pr0.3Ba2Cu3O6.75,Y0.7Pr0.3Ba2Cu3O6.75,"{'Ba': 2.0, 'Cu': 3.0, 'O': 6.75, 'Pr': 0.30000000000000004, 'Y': 0.7000000000000001}",25.2,25.2,0.0,1,Y0.7 Pr0.3 Ba2 Cu3 O6.75
5990,[7464],Y0.65Pr0.35Ba2Cu3O6.75,Y0.65Pr0.35Ba2Cu3O6.75,"{'Ba': 2.0, 'Cu': 3.0, 'O': 6.75, 'Pr': 0.35000000000000003, 'Y': 0.65}",6.3,6.3,0.0,1,Y0.65 Pr0.35 Ba2 Cu3 O6.75
5991,[7025],Sm1Ba2Cu3O6.75,Sm1Ba2Cu3O6.75,"{'Ba': 2.0, 'Cu': 3.0, 'O': 6.75, 'Sm': 1.0}",38.4,38.4,0.0,1,Sm1 Ba2 Cu3 O6.75
5992,"[450, 479, 2048, 4668, 5426, 6918, 7460, 10478, 24244]",Y1Ba2Cu3O6.75,Y1Ba2Cu3O6.75,"{'Ba': 2.0, 'Cu': 3.0, 'O': 6.75, 'Y': 1.0}",92.3,75.7722222222,10.3937243649,9,Y1 Ba2 Cu3 O6.75
5993,"[1512, 7001]",Y0.6Pr0.4Ba2Cu3O6.76,Y0.6Pr0.4Ba2Cu3O6.76,"{'Ba': 2.0, 'Cu': 3.0, 'O': 6.76, 'Pr': 0.4, 'Y': 0.6000000000000001}",44.3,34.0,10.3,2,Y0.6 Pr0.4 Ba2 Cu3 O6.76
5994,[7015],Y0.5Pr0.5Ba2Cu3O6.76,Y0.5Pr0.5Ba2Cu3O6.76,"{'Ba': 2.0, 'Cu': 3.0, 'O': 6.76, 'Pr': 0.5, 'Y': 0.5}",4.0,4.0,0.0,1,Y0.5 Pr0.5 Ba2 Cu3 O6.76
5995,"[774, 1386, 4666, 7008]",Y1Ba2Cu3O6.76,Y1Ba2Cu3O6.76,"{'Ba': 2.0, 'Cu': 3.0, 'O': 6.76, 'Y': 1.0}",85.23,77.0075,8.505478749,4,Y1 Ba2 Cu3 O6.76
5996,[6093],Y1Ba2Cu3O6.765,Y1Ba2Cu3O6.765,"{'Ba': 2.0, 'Cu': 3.0, 'O': 6.765, 'Y': 1.0}",75.8,75.8,0.0,1,Y1 Ba2 Cu3 O6.765
5997,"[5264, 7970, 8290]",Y1Ba2Cu3O6.77,Y1Ba2Cu3O6.77,"{'Ba': 2.0, 'Cu': 3.0, 'O': 6.77, 'Y': 1.0}",86.2,80.4,4.581120678,3,Y1 Ba2 Cu3 O6.77
5998,[963],Sm1Ba2Cu3O6.773,Sm1Ba2Cu3O6.773,"{'Ba': 2.0, 'Cu': 3.0, 'O': 6.773, 'Sm': 1.0}",87.8,87.8,0.0,1,Sm1 Ba2 Cu3 O6.773
5999,[8114],Y1Ba2Cu3O6.773,Y1Ba2Cu3O6.773,"{'Ba': 2.0, 'Cu': 3.0, 'O': 6.773, 'Y': 1.0}",71.2,71.2,0.0,1,Y1 Ba2 Cu3 O6.773
6000,"[773, 4596, 5587, 7822, 7826, 9550]",Y1Ba2Cu3O6.78,Y1Ba2Cu3O6.78,"{'Ba': 2.0, 'Cu': 3.0, 'O': 6.78, 'Y': 1.0}",88.1,81.55,5.940749111,6,Y1 Ba2 Cu3 O6.78
6001,[3940],Y1Ba2Cu3O6.791,Y1Ba2Cu3O6.791,"{'Ba': 2.0, 'Cu': 3.0, 'O': 6.791, 'Y': 1.0}",86.9,86.9,0.0,1,Y1 Ba2 Cu3 O6.791
6002,[6096],Y1Ba2Cu3O6.795,Y1Ba2Cu3O6.795,"{'Ba': 2.0, 'Cu': 3.0, 'O': 6.795, 'Y': 1.0}",82.5,82.5,0.0,1,Y1 Ba2 Cu3 O6.795
6003,[4947],Y0.9Pr0.1Ba2Cu3O6.8,Y0.9Pr0.1Ba2Cu3O6.8,"{'Ba': 2.0, 'Cu': 3.0, 'O': 6.8, 'Pr': 0.1, 'Y': 0.9}",65.6,65.6,0.0,1,Y0.9 Pr0.1 Ba2 Cu3 O6.8
6004,[4948],Y0.85Pr0.15Ba2Cu3O6.8,Y0.85Pr0.15Ba2Cu3O6.8,"{'Ba': 2.0, 'Cu': 3.0, 'O': 6.8, 'Pr': 0.15, 'Y': 0.85}",59.0,59.0,0.0,1,Y0.85 Pr0.15 Ba2 Cu3 O6.8
6005,[4949],Y0.8Pr0.2Ba2Cu3O6.8,Y0.8Pr0.2Ba2Cu3O6.8,"{'Ba': 2.0, 'Cu': 3.0, 'O': 6.8, 'Pr': 0.2, 'Y': 0.8}",56.1,56.1,0.0,1,Y0.8 Pr0.2 Ba2 Cu3 O6.8
6006,[7035],Sm0.7Pr0.3Ba2Cu3O6.8,Sm0.7Pr0.3Ba2Cu3O6.8,"{'Ba': 2.0, 'Cu': 3.0, 'O': 6.8, 'Pr': 0.30000000000000004, 'Sm': 0.7000000000000001}",5.0,5.0,0.0,1,Sm0.7 Pr0.3 Ba2 Cu3 O6.8
6007,[4950],Y0.6Pr0.4Ba2Cu3O6.8,Y0.6Pr0.4Ba2Cu3O6.8,"{'Ba': 2.0, 'Cu': 3.0, 'O': 6.8, 'Pr': 0.4, 'Y': 0.6000000000000001}",33.9,33.9,0.0,1,Y0.6 Pr0.4 Ba2 Cu3 O6.8
6008,[4951],Y0.55Pr0.45Ba2Cu3O6.8,Y0.55Pr0.45Ba2Cu3O6.8,"{'Ba': 2.0, 'Cu': 3.0, 'O': 6.8, 'Pr': 0.45, 'Y': 0.55}",23.5,23.5,0.0,1,Y0.55 Pr0.45 Ba2 Cu3 O6.8
6009,[8902],Pr1Ba2Cu3O6.8,Pr1Ba2Cu3O6.8,"{'Ba': 2.0, 'Cu': 3.0, 'O': 6.8, 'Pr': 1.0}",81.0,81.0,0.0,1,Pr1 Ba2 Cu3 O6.8
6010,[20048],Tm1Ba2Cu3O6.8,Tm1Ba2Cu3O6.8,"{'Ba': 2.0, 'Cu': 3.0, 'O': 6.8, 'Tm': 1.0}",79.8,79.8,0.0,1,Tm1 Ba2 Cu3 O6.8
6011,"[144, 260, 492, 650, 652, 1095, 1451, 1635, 2049, 2807, 3384, 4395, 4946, 6313, 6919, 7122, 8358, 8721, 10479, 23862, 23863, 24194]",Y1Ba2Cu3O6.8,Y1Ba2Cu3O6.8,"{'Ba': 2.0, 'Cu': 3.0, 'O': 6.8, 'Y': 1.0}",93.9,82.5863636364,7.7931960683,22,Y1 Ba2 Cu3 O6.8
6012,[4920],Y0.8Pr0.2Ba2Cu3O6.81,Y0.8Pr0.2Ba2Cu3O6.81,"{'Ba': 2.0, 'Cu': 3.0, 'O': 6.8100000000000005, 'Pr': 0.2, 'Y': 0.8}",68.0,68.0,0.0,1,Y0.8 Pr0.2 Ba2 Cu3 O6.81
6013,"[1550, 5017]",Y1Ba2Cu3O6.81,Y1Ba2Cu3O6.81,"{'Ba': 2.0, 'Cu': 3.0, 'O': 6.8100000000000005, 'Y': 1.0}",89.5,88.4,1.1,2,Y1 Ba2 Cu3 O6.81
6014,[962],Sm1Ba2Cu3O6.813,Sm1Ba2Cu3O6.813,"{'Ba': 2.0, 'Cu': 3.0, 'O': 6.813, 'Sm': 1.0}",83.6,83.6,0.0,1,Sm1 Ba2 Cu3 O6.813
6015,[4918],Y0.9Pr0.1Ba2Cu3O6.82,Y0.9Pr0.1Ba2Cu3O6.82,"{'Ba': 2.0, 'Cu': 3.0, 'O': 6.82, 'Pr': 0.1, 'Y': 0.9}",82.0,82.0,0.0,1,Y0.9 Pr0.1 Ba2 Cu3 O6.82
6016,[1510],Y0.8Pr0.2Ba2Cu3O6.82,Y0.8Pr0.2Ba2Cu3O6.82,"{'Ba': 2.0, 'Cu': 3.0, 'O': 6.82, 'Pr': 0.2, 'Y': 0.8}",71.6,71.6,0.0,1,Y0.8 Pr0.2 Ba2 Cu3 O6.82
6017,"[4690, 8505]",Sm1Ba2Cu3O6.82,Sm1Ba2Cu3O6.82,"{'Ba': 2.0, 'Cu': 3.0, 'O': 6.82, 'Sm': 1.0}",90.0,74.6,15.4,2,Sm1 Ba2 Cu3 O6.82
6018,"[515, 2380, 4595, 5021, 6571, 7727, 9870]",Y1Ba2Cu3O6.82,Y1Ba2Cu3O6.82,"{'Ba': 2.0, 'Cu': 3.0, 'O': 6.82, 'Y': 1.0}",93.0,88.65,2.606996082,7,Y1 Ba2 Cu3 O6.82
6019,[3941],Y1Ba2Cu3O6.821,Y1Ba2Cu3O6.821,"{'Ba': 2.0, 'Cu': 3.0, 'O': 6.821, 'Y': 1.0}",91.1,91.1,0.0,1,Y1 Ba2 Cu3 O6.821
6020,[8113],Y1Ba2Cu3O6.828,Y1Ba2Cu3O6.828,"{'Ba': 2.0, 'Cu': 3.0, 'O': 6.828, 'Y': 1.0}",88.0,88.0,0.0,1,Y1 Ba2 Cu3 O6.828
6021,[3953],Y1Ba2Cu3O6.829,Y1Ba2Cu3O6.829,"{'Ba': 2.0, 'Cu': 3.0, 'O': 6.829, 'Y': 1.0}",57.7,57.7,0.0,1,Y1 Ba2 Cu3 O6.829
6022,"[449, 4916, 9767]",Y1Ba2Cu3O6.83,Y1Ba2Cu3O6.83,"{'Ba': 2.0, 'Cu': 3.0, 'O': 6.83, 'Y': 1.0}",92.0,90.4333333333,1.1440668201,3,Y1 Ba2 Cu3 O6.83
6023,[3947],Y1Ba2Cu3O6.838,Y1Ba2Cu3O6.838,"{'Ba': 2.0, 'Cu': 3.0, 'O': 6.838, 'Y': 1.0}",84.8,84.8,0.0,1,Y1 Ba2 Cu3 O6.838
6024,[4919],Y0.85Pr0.15Ba2Cu3O6.84,Y0.85Pr0.15Ba2Cu3O6.84,"{'Ba': 2.0, 'Cu': 3.0, 'O': 6.84, 'Pr': 0.15, 'Y': 0.85}",75.0,75.0,0.0,1,Y0.85 Pr0.15 Ba2 Cu3 O6.84
6025,"[448, 3605, 4594]",Y1Ba2Cu3O6.84,Y1Ba2Cu3O6.84,"{'Ba': 2.0, 'Cu': 3.0, 'O': 6.84, 'Y': 1.0}",91.0,82.2833333333,10.842534554,3,Y1 Ba2 Cu3 O6.84
6026,[4917],Y0.95Pr0.05Ba2Cu3O6.85,Y0.95Pr0.05Ba2Cu3O6.85,"{'Ba': 2.0, 'Cu': 3.0, 'O': 6.85, 'Pr': 0.05, 'Y': 0.9500000000000001}",85.5,85.5,0.0,1,Y0.95 Pr0.05 Ba2 Cu3 O6.85
6027,[7031],Sm0.9Pr0.1Ba2Cu3O6.85,Sm0.9Pr0.1Ba2Cu3O6.85,"{'Ba': 2.0, 'Cu': 3.0, 'O': 6.85, 'Pr': 0.1, 'Sm': 0.9}",42.2,42.2,0.0,1,Sm0.9 Pr0.1 Ba2 Cu3 O6.85
6028,"[1509, 7456]",Y0.9Pr0.1Ba2Cu3O6.85,Y0.9Pr0.1Ba2Cu3O6.85,"{'Ba': 2.0, 'Cu': 3.0, 'O': 6.85, 'Pr': 0.1, 'Y': 0.9}",89.0,75.25,13.75,2,Y0.9 Pr0.1 Ba2 Cu3 O6.85
6029,[7021],Sm0.8Pr0.2Ba2Cu3O6.85,Sm0.8Pr0.2Ba2Cu3O6.85,"{'Ba': 2.0, 'Cu': 3.0, 'O': 6.85, 'Pr': 0.2, 'Sm': 0.8}",26.0,26.0,0.0,1,Sm0.8 Pr0.2 Ba2 Cu3 O6.85
6030,[7457],Y0.8Pr0.2Ba2Cu3O6.85,Y0.8Pr0.2Ba2Cu3O6.85,"{'Ba': 2.0, 'Cu': 3.0, 'O': 6.85, 'Pr': 0.2, 'Y': 0.8}",45.2,45.2,0.0,1,Y0.8 Pr0.2 Ba2 Cu3 O6.85
6031,[7036],Sm0.7Pr0.3Ba2Cu3O6.85,Sm0.7Pr0.3Ba2Cu3O6.85,"{'Ba': 2.0, 'Cu': 3.0, 'O': 6.85, 'Pr': 0.30000000000000004, 'Sm': 0.7000000000000001}",4.4,4.4,0.0,1,Sm0.7 Pr0.3 Ba2 Cu3 O6.85
6032,[7458],Y0.7Pr0.3Ba2Cu3O6.85,Y0.7Pr0.3Ba2Cu3O6.85,"{'Ba': 2.0, 'Cu': 3.0, 'O': 6.85, 'Pr': 0.30000000000000004, 'Y': 0.7000000000000001}",27.4,27.4,0.0,1,Y0.7 Pr0.3 Ba2 Cu3 O6.85
6033,[7459],Y0.65Pr0.35Ba2Cu3O6.85,Y0.65Pr0.35Ba2Cu3O6.85,"{'Ba': 2.0, 'Cu': 3.0, 'O': 6.85, 'Pr': 0.35000000000000003, 'Y': 0.65}",16.3,16.3,0.0,1,Y0.65 Pr0.35 Ba2 Cu3 O6.85
6034,[6998],Y0.6Pr0.4Ba2Cu3O6.85,Y0.6Pr0.4Ba2Cu3O6.85,"{'Ba': 2.0, 'Cu': 3.0, 'O': 6.85, 'Pr': 0.4, 'Y': 0.6000000000000001}",27.8,27.8,0.0,1,Y0.6 Pr0.4 Ba2 Cu3 O6.85
6035,[7016],Y0.5Pr0.5Ba2Cu3O6.85,Y0.5Pr0.5Ba2Cu3O6.85,"{'Ba': 2.0, 'Cu': 3.0, 'O': 6.85, 'Pr': 0.5, 'Y': 0.5}",4.0,4.0,0.0,1,Y0.5 Pr0.5 Ba2 Cu3 O6.85
6036,"[472, 3665, 7026]",Sm1Ba2Cu3O6.85,Sm1Ba2Cu3O6.85,"{'Ba': 2.0, 'Cu': 3.0, 'O': 6.85, 'Sm': 1.0}",92.8,79.3,17.4223993755,3,Sm1 Ba2 Cu3 O6.85
6037,"[243, 1599, 2050, 4394, 6314, 6920, 7009, 7455, 8359, 10480, 11497]",Y1Ba2Cu3O6.85,Y1Ba2Cu3O6.85,"{'Ba': 2.0, 'Cu': 3.0, 'O': 6.85, 'Y': 1.0}",92.0,87.3363636364,4.0705757304,11,Y1 Ba2 Cu3 O6.85
6038,[3944],Y1Ba2Cu3O6.852,Y1Ba2Cu3O6.852,"{'Ba': 2.0, 'Cu': 3.0, 'O': 6.852, 'Y': 1.0}",89.2,89.2,0.0,1,Y1 Ba2 Cu3 O6.852
6039,[10578],Sm1Ba2Cu3O6.858,Sm1Ba2Cu3O6.858,"{'Ba': 2.0, 'Cu': 3.0, 'O': 6.858, 'Sm': 1.0}",90.0,90.0,0.0,1,Sm1 Ba2 Cu3 O6.858
6040,[3945],Y1Ba2Cu3O6.858,Y1Ba2Cu3O6.858,"{'Ba': 2.0, 'Cu': 3.0, 'O': 6.858, 'Y': 1.0}",87.4,87.4,0.0,1,Y1 Ba2 Cu3 O6.858
6041,[4689],Sm1Ba2Cu3O6.86,Sm1Ba2Cu3O6.86,"{'Ba': 2.0, 'Cu': 3.0, 'O': 6.86, 'Sm': 1.0}",91.0,91.0,0.0,1,Sm1 Ba2 Cu3 O6.86
6042,[20046],Tm1Ba2Cu3O6.86,Tm1Ba2Cu3O6.86,"{'Ba': 2.0, 'Cu': 3.0, 'O': 6.86, 'Tm': 1.0}",87.2,87.2,0.0,1,Tm1 Ba2 Cu3 O6.86
6043,"[525, 9438]",Y1Ba2Cu3O6.86,Y1Ba2Cu3O6.86,"{'Ba': 2.0, 'Cu': 3.0, 'O': 6.86, 'Y': 1.0}",91.0,87.5,3.5,2,Y1 Ba2 Cu3 O6.86
6044,[3948],Y1Ba2Cu3O6.861,Y1Ba2Cu3O6.861,"{'Ba': 2.0, 'Cu': 3.0, 'O': 6.861, 'Y': 1.0}",80.5,80.5,0.0,1,Y1 Ba2 Cu3 O6.861
6045,[3942],Y1Ba2Cu3O6.869,Y1Ba2Cu3O6.869,"{'Ba': 2.0, 'Cu': 3.0, 'O': 6.869, 'Y': 1.0}",90.0,90.0,0.0,1,Y1 Ba2 Cu3 O6.869
6046,[3627],Yb0.7Pr0.3Ba2Cu3O6.87,Yb0.7Pr0.3Ba2Cu3O6.87,"{'Ba': 2.0, 'Cu': 3.0, 'O': 6.87, 'Pr': 0.30000000000000004, 'Yb': 0.7000000000000001}",67.2,67.2,0.0,1,Yb0.7 Pr0.3 Ba2 Cu3 O6.87
6047,[20047],Tm1Ba2Cu3O6.87,Tm1Ba2Cu3O6.87,"{'Ba': 2.0, 'Cu': 3.0, 'O': 6.87, 'Tm': 1.0}",83.6,83.6,0.0,1,Tm1 Ba2 Cu3 O6.87
6048,"[1096, 3943, 3952, 5265, 8993, 9869]",Y1Ba2Cu3O6.87,Y1Ba2Cu3O6.87,"{'Ba': 2.0, 'Cu': 3.0, 'O': 6.87, 'Y': 1.0}",95.2,89.3333333333,6.7163151273,6,Y1 Ba2 Cu3 O6.87
6049,[9348],Y1.1Ba2Cu3O6.87,Y1.1Ba2Cu3O6.87,"{'Ba': 2.0, 'Cu': 3.0, 'O': 6.87, 'Y': 1.1}",95.9,95.9,0.0,1,Y1.1 Ba2 Cu3 O6.87
6050,[3950],Y1Ba2Cu3O6.876,Y1Ba2Cu3O6.876,"{'Ba': 2.0, 'Cu': 3.0, 'O': 6.876, 'Y': 1.0}",78.1,78.1,0.0,1,Y1 Ba2 Cu3 O6.876
6051,[961],Sm1Ba2Cu3O6.878,Sm1Ba2Cu3O6.878,"{'Ba': 2.0, 'Cu': 3.0, 'O': 6.878, 'Sm': 1.0}",91.1,91.1,0.0,1,Sm1 Ba2 Cu3 O6.878
6052,[3626],Yb0.8Pr0.2Ba2Cu3O6.88,Yb0.8Pr0.2Ba2Cu3O6.88,"{'Ba': 2.0, 'Cu': 3.0, 'O': 6.88, 'Pr': 0.2, 'Yb': 0.8}",79.9,79.9,0.0,1,Yb0.8 Pr0.2 Ba2 Cu3 O6.88
6053,[687],Y0.7Pr0.3Ba2Cu3O6.88,Y0.7Pr0.3Ba2Cu3O6.88,"{'Ba': 2.0, 'Cu': 3.0, 'O': 6.88, 'Pr': 0.30000000000000004, 'Y': 0.7000000000000001}",47.5,47.5,0.0,1,Y0.7 Pr0.3 Ba2 Cu3 O6.88
6054,[7994],Y0.6Pr0.4Ba2Cu3O6.88,Y0.6Pr0.4Ba2Cu3O6.88,"{'Ba': 2.0, 'Cu': 3.0, 'O': 6.88, 'Pr': 0.4, 'Y': 0.6000000000000001}",47.0,47.0,0.0,1,Y0.6 Pr0.4 Ba2 Cu3 O6.88
6055,"[1619, 6315, 7823, 7827, 7966]",Y1Ba2Cu3O6.88,Y1Ba2Cu3O6.88,"{'Ba': 2.0, 'Cu': 3.0, 'O': 6.88, 'Y': 1.0}",92.0,89.62,3.8441644086,5,Y1 Ba2 Cu3 O6.88
6056,[3951],Y1Ba2Cu3O6.883,Y1Ba2Cu3O6.883,"{'Ba': 2.0, 'Cu': 3.0, 'O': 6.883, 'Y': 1.0}",74.0,74.0,0.0,1,Y1 Ba2 Cu3 O6.883
6057,[3939],Y1Ba2Cu3O6.887,Y1Ba2Cu3O6.887,"{'Ba': 2.0, 'Cu': 3.0, 'O': 6.8870000000000005, 'Y': 1.0}",89.8,89.8,0.0,1,Y1 Ba2 Cu3 O6.887
6058,[8489],Sm1Ba2Cu3O6.89,Sm1Ba2Cu3O6.89,"{'Ba': 2.0, 'Cu': 3.0, 'O': 6.89, 'Sm': 1.0}",90.0,90.0,0.0,1,Sm1 Ba2 Cu3 O6.89
6059,"[344, 447, 788, 5020, 6921]",Y1Ba2Cu3O6.89,Y1Ba2Cu3O6.89,"{'Ba': 2.0, 'Cu': 3.0, 'O': 6.89, 'Y': 1.0}",92.1,86.34,10.8311772213,5,Y1 Ba2 Cu3 O6.89
6060,[3949],Y1Ba2Cu3O6.894,Y1Ba2Cu3O6.894,"{'Ba': 2.0, 'Cu': 3.0, 'O': 6.894, 'Y': 1.0}",80.5,80.5,0.0,1,Y1 Ba2 Cu3 O6.894
6061,[3624],Yb0.95Pr0.05Ba2Cu3O6.9,Yb0.95Pr0.05Ba2Cu3O6.9,"{'Ba': 2.0, 'Cu': 3.0, 'O': 6.9, 'Pr': 0.05, 'Yb': 0.9500000000000001}",89.1,89.1,0.0,1,Yb0.95 Pr0.05 Ba2 Cu3 O6.9
6062,[689],Y0.6Pr0.4Ba2Cu3O6.9,Y0.6Pr0.4Ba2Cu3O6.9,"{'Ba': 2.0, 'Cu': 3.0, 'O': 6.9, 'Pr': 0.4, 'Y': 0.6000000000000001}",32.0,32.0,0.0,1,Y0.6 Pr0.4 Ba2 Cu3 O6.9
6063,[3629],Yb0.5Pr0.5Ba2Cu3O6.9,Yb0.5Pr0.5Ba2Cu3O6.9,"{'Ba': 2.0, 'Cu': 3.0, 'O': 6.9, 'Pr': 0.5, 'Yb': 0.5}",34.8,34.8,0.0,1,Yb0.5 Pr0.5 Ba2 Cu3 O6.9
6064,[960],Sm1Ba2Cu3O6.9,Sm1Ba2Cu3O6.9,"{'Ba': 2.0, 'Cu': 3.0, 'O': 6.9, 'Sm': 1.0}",87.0,87.0,0.0,1,Sm1 Ba2 Cu3 O6.9
6065,"[125, 173, 359, 507, 514, 706, 809, 828, 933, 1199, 1385, 1594, 1765, 2051, 2379, 2838, 3226, 3382, 3796, 4393, 7181, 7958, 7959, 7960, 7961, 8256, 8360, 8722, 8994, 9515, 9516, 9522, 9526, 9529, 9530, 9813, 9814, 9822]",Y1Ba2Cu3O6.9,Y1Ba2Cu3O6.9,"{'Ba': 2.0, 'Cu': 3.0, 'O': 6.9, 'Y': 1.0}",95.0,90.9753947368,2.8298092231,38,Y1 Ba2 Cu3 O6.9
6066,[10142],Yb1Ba2Cu3O6.9,Yb1Ba2Cu3O6.9,"{'Ba': 2.0, 'Cu': 3.0, 'O': 6.9, 'Yb': 1.0}",92.8,92.8,0.0,1,Yb1 Ba2 Cu3 O6.9
6067,[8112],Y1Ba2Cu3O6.906,Y1Ba2Cu3O6.906,"{'Ba': 2.0, 'Cu': 3.0, 'O': 6.906, 'Y': 1.0}",92.4,92.4,0.0,1,Y1 Ba2 Cu3 O6.906
6068,[685],Y0.9Pr0.1Ba2Cu3O6.91,Y0.9Pr0.1Ba2Cu3O6.91,"{'Ba': 2.0, 'Cu': 3.0, 'O': 6.91, 'Pr': 0.1, 'Y': 0.9}",81.0,81.0,0.0,1,Y0.9 Pr0.1 Ba2 Cu3 O6.91
6069,[686],Y0.8Pr0.2Ba2Cu3O6.91,Y0.8Pr0.2Ba2Cu3O6.91,"{'Ba': 2.0, 'Cu': 3.0, 'O': 6.91, 'Pr': 0.2, 'Y': 0.8}",62.7,62.7,0.0,1,Y0.8 Pr0.2 Ba2 Cu3 O6.91
6070,[3628],Yb0.6Pr0.4Ba2Cu3O6.91,Yb0.6Pr0.4Ba2Cu3O6.91,"{'Ba': 2.0, 'Cu': 3.0, 'O': 6.91, 'Pr': 0.4, 'Yb': 0.6000000000000001}",50.5,50.5,0.0,1,Yb0.6 Pr0.4 Ba2 Cu3 O6.91
6071,[20044],Tm1Ba2Cu3O6.91,Tm1Ba2Cu3O6.91,"{'Ba': 2.0, 'Cu': 3.0, 'O': 6.91, 'Tm': 1.0}",90.36,90.36,0.0,1,Tm1 Ba2 Cu3 O6.91
6072,[10279],Y0.2Yb0.8Ba2Cu3O6.91,Y0.2Yb0.8Ba2Cu3O6.91,"{'Ba': 2.0, 'Cu': 3.0, 'O': 6.91, 'Y': 0.2, 'Yb': 0.8}",91.4,91.4,0.0,1,Y0.2 Yb0.8 Ba2 Cu3 O6.91
6073,"[4630, 5016, 7933, 8991, 9841, 9868, 9956]",Y1Ba2Cu3O6.91,Y1Ba2Cu3O6.91,"{'Ba': 2.0, 'Cu': 3.0, 'O': 6.91, 'Y': 1.0}",95.2,92.3428571429,1.7003000936000001,7,Y1 Ba2 Cu3 O6.91
6074,[3625],Yb0.9Pr0.1Ba2Cu3O6.92,Yb0.9Pr0.1Ba2Cu3O6.92,"{'Ba': 2.0, 'Cu': 3.0, 'O': 6.92, 'Pr': 0.1, 'Yb': 0.9}",88.0,88.0,0.0,1,Yb0.9 Pr0.1 Ba2 Cu3 O6.92
6075,[3630],Yb0.45Pr0.55Ba2Cu3O6.92,Yb0.45Pr0.55Ba2Cu3O6.92,"{'Ba': 2.0, 'Cu': 3.0, 'O': 6.92, 'Pr': 0.55, 'Yb': 0.45}",18.3,18.3,0.0,1,Yb0.45 Pr0.55 Ba2 Cu3 O6.92
6076,[8473],Sm1Ba2Cu3O6.92,Sm1Ba2Cu3O6.92,"{'Ba': 2.0, 'Cu': 3.0, 'O': 6.92, 'Sm': 1.0}",90.0,90.0,0.0,1,Sm1 Ba2 Cu3 O6.92
6077,"[1034, 2423, 4011, 4279, 4314, 4890, 8757]",Y1Ba2Cu3O6.92,Y1Ba2Cu3O6.92,"{'Ba': 2.0, 'Cu': 3.0, 'O': 6.92, 'Y': 1.0}",92.4,91.6142857143,0.7971889388000001,7,Y1 Ba2 Cu3 O6.92
6078,[959],Sm1Ba2Cu3O6.927,Sm1Ba2Cu3O6.927,"{'Ba': 2.0, 'Cu': 3.0, 'O': 6.927, 'Sm': 1.0}",88.1,88.1,0.0,1,Sm1 Ba2 Cu3 O6.927
6079,"[10650, 10917, 20611]",Y0.6Pr0.4Ba2Cu3O6.929,Y0.6Pr0.4Ba2Cu3O6.929,"{'Ba': 2.0, 'Cu': 3.0, 'O': 6.929, 'Pr': 0.4, 'Y': 0.6000000000000001}",45.3,45.1333333333,0.2357022604,3,Y0.6 Pr0.4 Ba2 Cu3 O6.929
6080,[4936],Y0.44Pr0.56Ba2Cu3O6.93,Y0.44Pr0.56Ba2Cu3O6.93,"{'Ba': 2.0, 'Cu': 3.0, 'O': 6.93, 'Pr': 0.56, 'Y': 0.44}",2.1,2.1,0.0,1,Y0.44 Pr0.56 Ba2 Cu3 O6.93
6081,[10278],Y0.4Yb0.6Ba2Cu3O6.93,Y0.4Yb0.6Ba2Cu3O6.93,"{'Ba': 2.0, 'Cu': 3.0, 'O': 6.93, 'Y': 0.4, 'Yb': 0.6000000000000001}",91.1,91.1,0.0,1,Y0.4 Yb0.6 Ba2 Cu3 O6.93
6082,"[1461, 1818, 3067, 4593, 5015, 5023, 5266, 5368, 5650, 6922, 7824, 7828, 8083, 8084, 8990, 9581, 9585, 9757, 10277, 11149]",Y1Ba2Cu3O6.93,Y1Ba2Cu3O6.93,"{'Ba': 2.0, 'Cu': 3.0, 'O': 6.93, 'Y': 1.0}",93.5,91.5725,1.1341819739,20,Y1 Ba2 Cu3 O6.93
6083,[10280],Yb1Ba2Cu3O6.93,Yb1Ba2Cu3O6.93,"{'Ba': 2.0, 'Cu': 3.0, 'O': 6.93, 'Yb': 1.0}",89.5,89.5,0.0,1,Yb1 Ba2 Cu3 O6.93
6084,[3946],Y1Ba2Cu3O6.937,Y1Ba2Cu3O6.937,"{'Ba': 2.0, 'Cu': 3.0, 'O': 6.937, 'Y': 1.0}",84.8,84.8,0.0,1,Y1 Ba2 Cu3 O6.937
6085,[4814],Y1Ba2Cu3O6.939,Y1Ba2Cu3O6.939,"{'Ba': 2.0, 'Cu': 3.0, 'O': 6.939, 'Y': 1.0}",91.8,91.8,0.0,1,Y1 Ba2 Cu3 O6.939
6086,[20045],Tm1Ba2Cu3O6.94,Tm1Ba2Cu3O6.94,"{'Ba': 2.0, 'Cu': 3.0, 'O': 6.94, 'Tm': 1.0}",89.88,89.88,0.0,1,Tm1 Ba2 Cu3 O6.94
6087,"[381, 446, 767, 1598, 4657, 4779, 5014, 5425, 6397, 7992, 7993, 8272, 8992, 9867]",Y1Ba2Cu3O6.94,Y1Ba2Cu3O6.94,"{'Ba': 2.0, 'Cu': 3.0, 'O': 6.94, 'Y': 1.0}",97.0,92.5571428571,1.7911346307,14,Y1 Ba2 Cu3 O6.94
6088,[957],Sm1Ba2Cu3O6.941,Sm1Ba2Cu3O6.941,"{'Ba': 2.0, 'Cu': 3.0, 'O': 6.941, 'Sm': 1.0}",90.7,90.7,0.0,1,Sm1 Ba2 Cu3 O6.941
6089,"[10649, 10916]",Y0.7Pr0.3Ba2Cu3O6.942,Y0.7Pr0.3Ba2Cu3O6.942,"{'Ba': 2.0, 'Cu': 3.0, 'O': 6.942, 'Pr': 0.30000000000000004, 'Y': 0.7000000000000001}",60.6,60.6,0.0,2,Y0.7 Pr0.3 Ba2 Cu3 O6.942
6090,[810],Sm1Ba2Cu3O6.944,Sm1Ba2Cu3O6.944,"{'Ba': 2.0, 'Cu': 3.0, 'O': 6.944, 'Sm': 1.0}",94.0,94.0,0.0,1,Sm1 Ba2 Cu3 O6.944
6091,[1427],Y0.95Pr0.05Ba2Cu3O6.95,Y0.95Pr0.05Ba2Cu3O6.95,"{'Ba': 2.0, 'Cu': 3.0, 'O': 6.95, 'Pr': 0.05, 'Y': 0.9500000000000001}",91.5,91.5,0.0,1,Y0.95 Pr0.05 Ba2 Cu3 O6.95
6092,"[2640, 7032]",Sm0.9Pr0.1Ba2Cu3O6.95,Sm0.9Pr0.1Ba2Cu3O6.95,"{'Ba': 2.0, 'Cu': 3.0, 'O': 6.95, 'Pr': 0.1, 'Sm': 0.9}",65.7,61.6,4.1,2,Sm0.9 Pr0.1 Ba2 Cu3 O6.95
6093,[2644],Tm0.9Pr0.1Ba2Cu3O6.95,Tm0.9Pr0.1Ba2Cu3O6.95,"{'Ba': 2.0, 'Cu': 3.0, 'O': 6.95, 'Pr': 0.1, 'Tm': 0.9}",87.9,87.9,0.0,1,Tm0.9 Pr0.1 Ba2 Cu3 O6.95
6094,"[1428, 1927, 7450]",Y0.9Pr0.1Ba2Cu3O6.95,Y0.9Pr0.1Ba2Cu3O6.95,"{'Ba': 2.0, 'Cu': 3.0, 'O': 6.95, 'Pr': 0.1, 'Y': 0.9}",88.1,84.2,4.1206795556,3,Y0.9 Pr0.1 Ba2 Cu3 O6.95
6095,[1429],Y0.85Pr0.15Ba2Cu3O6.95,Y0.85Pr0.15Ba2Cu3O6.95,"{'Ba': 2.0, 'Cu': 3.0, 'O': 6.95, 'Pr': 0.15, 'Y': 0.85}",81.6,81.6,0.0,1,Y0.85 Pr0.15 Ba2 Cu3 O6.95
6096,"[2641, 7022]",Sm0.8Pr0.2Ba2Cu3O6.95,Sm0.8Pr0.2Ba2Cu3O6.95,"{'Ba': 2.0, 'Cu': 3.0, 'O': 6.95, 'Pr': 0.2, 'Sm': 0.8}",41.0,39.65,1.35,2,Sm0.8 Pr0.2 Ba2 Cu3 O6.95
6097,[2645],Tm0.8Pr0.2Ba2Cu3O6.95,Tm0.8Pr0.2Ba2Cu3O6.95,"{'Ba': 2.0, 'Cu': 3.0, 'O': 6.95, 'Pr': 0.2, 'Tm': 0.8}",77.9,77.9,0.0,1,Tm0.8 Pr0.2 Ba2 Cu3 O6.95
6098,"[1430, 1756, 7451]",Y0.8Pr0.2Ba2Cu3O6.95,Y0.8Pr0.2Ba2Cu3O6.95,"{'Ba': 2.0, 'Cu': 3.0, 'O': 6.95, 'Pr': 0.2, 'Y': 0.8}",74.6,68.8,7.3025109837,3,Y0.8 Pr0.2 Ba2 Cu3 O6.95
6099,"[2642, 7037]",Sm0.7Pr0.3Ba2Cu3O6.95,Sm0.7Pr0.3Ba2Cu3O6.95,"{'Ba': 2.0, 'Cu': 3.0, 'O': 6.95, 'Pr': 0.30000000000000004, 'Sm': 0.7000000000000001}",23.1,17.5,5.6,2,Sm0.7 Pr0.3 Ba2 Cu3 O6.95
6100,[2646],Tm0.7Pr0.3Ba2Cu3O6.95,Tm0.7Pr0.3Ba2Cu3O6.95,"{'Ba': 2.0, 'Cu': 3.0, 'O': 6.95, 'Pr': 0.30000000000000004, 'Tm': 0.7000000000000001}",64.1,64.1,0.0,1,Tm0.7 Pr0.3 Ba2 Cu3 O6.95
6101,"[1757, 7452]",Y0.7Pr0.3Ba2Cu3O6.95,Y0.7Pr0.3Ba2Cu3O6.95,"{'Ba': 2.0, 'Cu': 3.0, 'O': 6.95, 'Pr': 0.30000000000000004, 'Y': 0.7000000000000001}",62.5,50.9,11.6,2,Y0.7 Pr0.3 Ba2 Cu3 O6.95
6102,[7453],Y0.65Pr0.35Ba2Cu3O6.95,Y0.65Pr0.35Ba2Cu3O6.95,"{'Ba': 2.0, 'Cu': 3.0, 'O': 6.95, 'Pr': 0.35000000000000003, 'Y': 0.65}",33.0,33.0,0.0,1,Y0.65 Pr0.35 Ba2 Cu3 O6.95
6103,[2647],Tm0.6Pr0.4Ba2Cu3O6.95,Tm0.6Pr0.4Ba2Cu3O6.95,"{'Ba': 2.0, 'Cu': 3.0, 'O': 6.95, 'Pr': 0.4, 'Tm': 0.6000000000000001}",50.3,50.3,0.0,1,Tm0.6 Pr0.4 Ba2 Cu3 O6.95
6104,"[1758, 6997, 7454]",Y0.6Pr0.4Ba2Cu3O6.95,Y0.6Pr0.4Ba2Cu3O6.95,"{'Ba': 2.0, 'Cu': 3.0, 'O': 6.95, 'Pr': 0.4, 'Y': 0.6000000000000001}",45.3,34.2333333333,10.3519187701,3,Y0.6 Pr0.4 Ba2 Cu3 O6.95
6105,[2648],Tm0.5Pr0.5Ba2Cu3O6.95,Tm0.5Pr0.5Ba2Cu3O6.95,"{'Ba': 2.0, 'Cu': 3.0, 'O': 6.95, 'Pr': 0.5, 'Tm': 0.5}",28.9,28.9,0.0,1,Tm0.5 Pr0.5 Ba2 Cu3 O6.95
6106,"[4934, 7017]",Y0.5Pr0.5Ba2Cu3O6.95,Y0.5Pr0.5Ba2Cu3O6.95,"{'Ba': 2.0, 'Cu': 3.0, 'O': 6.95, 'Pr': 0.5, 'Y': 0.5}",28.2,20.45,7.75,2,Y0.5 Pr0.5 Ba2 Cu3 O6.95