,sc_id,supercon_formula,cleaned_formula,material_dict,highest_Tc,average_Tc,std_Tc,entry_count,composition
6343,"[520, 1125, 1470, 1475, 1476, 1479, 1486, 1487, 1488, 1534, 1542, 1637, 1713, 1735, 1784, 1827, 2093, 2457, 2468, 2498, 2956, 3265, 3352, 3416, 3443, 3812, 3860, 4008, 4122, 4442, 4443, 4675, 4773, 4850, 5001, 5013, 5050, 5338, 5609, 5613, 5617, 5625, 5694, 6054, 6077, 6750, 6760, 6799, 6906, 6907, 7189, 7222, 7240, 7390, 7394, 7622, 7754, 7837, 7925, 8008, 8019, 8121, 8167, 8614, 8933, 8975, 8976, 8977, 9069, 9136, 9396, 9409, 9455, 9812, 10190, 10303, 10307, 11355, 11496, 20674, 21389, 21527]",Y1Ba2Cu4O8+-Z,Y1Ba2Cu4O8,"{'Ba': 2.0, 'Cu': 4.0, 'O': 8.0, 'Y': 1.0}",83.0,78.787195122,3.437453423,82,Y1 Ba2 Cu4 O8
6344,"[4331, 7627]",Yb1Ba2Cu4O8,Yb1Ba2Cu4O8,"{'Ba': 2.0, 'Cu': 4.0, 'O': 8.0, 'Yb': 1.0}",78.8,78.8,0.0,2,Yb1 Ba2 Cu4 O8
6345,[1485],Y1Ba2Cu4O8.043,Y1Ba2Cu4O8.043,"{'Ba': 2.0, 'Cu': 4.0, 'O': 8.043, 'Y': 1.0}",80.0,80.0,0.0,1,Y1 Ba2 Cu4 O8.043
6346,[1474],Y1Ba2Cu4O8.045,Y1Ba2Cu4O8.045,"{'Ba': 2.0, 'Cu': 4.0, 'O': 8.045, 'Y': 1.0}",81.4,81.4,0.0,1,Y1 Ba2 Cu4 O8.045
6347,[3736],Y1Ba2Cu285Ni0.15O7-z,Y1Ba2Cu285Ni0.15O7,"{'Ba': 2.0, 'Cu': 285.0, 'Ni': 0.15, 'O': 7.0, 'Y': 1.0}",73.4,73.4,0.0,1,Y1 Ba2 Cu285 Ni0.15 O7
6348,[16612],Ba2Sn3Sb6,Ba2Sn3Sb6,"{'Ba': 2.0, 'Sb': 6.0, 'Sn': 3.0}",3.9,3.9,0.0,1,Ba2 Sn3 Sb6
6349,[11794],Ba2Sr6Si46,Ba2Sr6Si46,"{'Ba': 2.0, 'Si': 46.0, 'Sr': 6.0}",4.1,4.1,0.0,1,Ba2 Sr6 Si46
6350,[168],Y1Ba2.01Cu2.7Co0.3O6.8,Y1Ba2.01Cu2.7Co0.3O6.8,"{'Ba': 2.01, 'Co': 0.30000000000000004, 'Cu': 2.7, 'O': 6.8, 'Y': 1.0}",36.0,36.0,0.0,1,Y1 Ba2.01 Cu2.7 Co0.3 O6.8
6351,[220],Y1Ba2.01Cu2.806Cr0.194O7.3,Y1Ba2.01Cu2.806Cr0.194O7.3,"{'Ba': 2.01, 'Cr': 0.194, 'Cu': 2.806, 'O': 7.3, 'Y': 1.0}",62.0,62.0,0.0,1,Y1 Ba2.01 Cu2.806 Cr0.194 O7.3
6352,[172],Y1.01Ba2.01Cu2.697Fe0.303O,Y1.01Ba2.01Cu2.697Fe0.303O,"{'Ba': 2.01, 'Cu': 2.697, 'Fe': 0.303, 'O': 1.0, 'Y': 1.01}",36.0,36.0,0.0,1,Y1.01 Ba2.01 Cu2.697 Fe0.303 O1
6353,[164],Y1Ba2.01Cu2.81Ni0.19O6.7,Y1Ba2.01Cu2.81Ni0.19O6.7,"{'Ba': 2.01, 'Cu': 2.81, 'Ni': 0.19, 'O': 6.7, 'Y': 1.0}",65.0,65.0,0.0,1,Y1 Ba2.01 Cu2.81 Ni0.19 O6.7
6354,[169],Y1.01Ba2.01Cu2.906Ni0.094O6.7,Y1.01Ba2.01Cu2.906Ni0.094O6.7,"{'Ba': 2.01, 'Cu': 2.906, 'Ni': 0.094, 'O': 6.7, 'Y': 1.01}",71.0,71.0,0.0,1,Y1.01 Ba2.01 Cu2.906 Ni0.094 O6.7
6355,[3048],Y1Ba2.01Cu3.11O7,Y1Ba2.01Cu3.11O7,"{'Ba': 2.01, 'Cu': 3.11, 'O': 7.0, 'Y': 1.0}",86.0,86.0,0.0,1,Y1 Ba2.01 Cu3.11 O7
6356,[165],Y1Ba2.02Cu2.18Zn0.82O7,Y1Ba2.02Cu2.18Zn0.82O7,"{'Ba': 2.02, 'Cu': 2.18, 'O': 7.0, 'Y': 1.0, 'Zn': 0.8200000000000001}",30.0,30.0,0.0,1,Y1 Ba2.02 Cu2.18 Zn0.82 O7
6357,[175],Y1.01Ba2.03Cu2.808Li0.192O6.6,Y1.01Ba2.03Cu2.808Li0.192O6.6,"{'Ba': 2.03, 'Cu': 2.808, 'Li': 0.192, 'O': 6.6, 'Y': 1.01}",33.0,33.0,0.0,1,Y1.01 Ba2.03 Cu2.808 Li0.192 O6.6
6358,[3049],Er1Ba2.03Cu3.05O7,Er1Ba2.03Cu3.05O7,"{'Ba': 2.03, 'Cu': 3.05, 'Er': 1.0, 'O': 7.0}",90.0,90.0,0.0,1,Er1 Ba2.03 Cu3.05 O7
6359,[5975],Hg0.92Ba2.05Cu1.03O4.044,Hg0.92Ba2.05Cu1.03O4.044,"{'Ba': 2.05, 'Cu': 1.03, 'Hg': 0.92, 'O': 4.044}",90.7,90.7,0.0,1,Hg0.92 Ba2.05 Cu1.03 O4.044
6360,[6031],Hg0.92Ba2.05Cu1.03O4.05,Hg0.92Ba2.05Cu1.03O4.05,"{'Ba': 2.05, 'Cu': 1.03, 'Hg': 0.92, 'O': 4.05}",93.8,93.8,0.0,1,Hg0.92 Ba2.05 Cu1.03 O4.05
6361,[6032],Hg0.92Ba2.05Cu1.03O4.058,Hg0.92Ba2.05Cu1.03O4.058,"{'Ba': 2.05, 'Cu': 1.03, 'Hg': 0.92, 'O': 4.058}",92.1,92.1,0.0,1,Hg0.92 Ba2.05 Cu1.03 O4.058
6362,[6033],Hg0.92Ba2.05Cu1.03O4.062,Hg0.92Ba2.05Cu1.03O4.062,"{'Ba': 2.05, 'Cu': 1.03, 'Hg': 0.92, 'O': 4.062}",96.5,96.5,0.0,1,Hg0.92 Ba2.05 Cu1.03 O4.062
6363,[6034],Hg0.92Ba2.05Cu1.03O4.063,Hg0.92Ba2.05Cu1.03O4.063,"{'Ba': 2.05, 'Cu': 1.03, 'Hg': 0.92, 'O': 4.063}",93.4,93.4,0.0,1,Hg0.92 Ba2.05 Cu1.03 O4.063
6364,[6035],Hg0.92Ba2.05Cu1.03O4.065,Hg0.92Ba2.05Cu1.03O4.065,"{'Ba': 2.05, 'Cu': 1.03, 'Hg': 0.92, 'O': 4.065}",91.6,91.6,0.0,1,Hg0.92 Ba2.05 Cu1.03 O4.065
6365,[6036],Hg0.92Ba2.05Cu1.03O4.079,Hg0.92Ba2.05Cu1.03O4.079,"{'Ba': 2.05, 'Cu': 1.03, 'Hg': 0.92, 'O': 4.079}",79.2,79.2,0.0,1,Hg0.92 Ba2.05 Cu1.03 O4.079
6366,[6037],Hg0.92Ba2.05Cu1.03O4.087,Hg0.92Ba2.05Cu1.03O4.087,"{'Ba': 2.05, 'Cu': 1.03, 'Hg': 0.92, 'O': 4.087}",70.3,70.3,0.0,1,Hg0.92 Ba2.05 Cu1.03 O4.087
6367,[6038],Hg0.92Ba2.05Cu1.03O4.103,Hg0.92Ba2.05Cu1.03O4.103,"{'Ba': 2.05, 'Cu': 1.03, 'Hg': 0.92, 'O': 4.103}",63.6,63.6,0.0,1,Hg0.92 Ba2.05 Cu1.03 O4.103
6368,[5974],Hg0.75Ba2.07Ca2.07Cu3.11O8.136,Hg0.75Ba2.07Ca2.07Cu3.11O8.136,"{'Ba': 2.07, 'Ca': 2.07, 'Cu': 3.11, 'Hg': 0.75, 'O': 8.136}",132.9,132.9,0.0,1,Hg0.75 Ba2.07 Ca2.07 Cu3.11 O8.136
6369,[6026],Hg0.75Ba2.07Ca2.07Cu3.11O8.15,Hg0.75Ba2.07Ca2.07Cu3.11O8.15,"{'Ba': 2.07, 'Ca': 2.07, 'Cu': 3.11, 'Hg': 0.75, 'O': 8.15}",134.7,134.7,0.0,1,Hg0.75 Ba2.07 Ca2.07 Cu3.11 O8.15
6370,[6027],Hg0.75Ba2.07Ca2.07Cu3.11O8.16,Hg0.75Ba2.07Ca2.07Cu3.11O8.16,"{'Ba': 2.07, 'Ca': 2.07, 'Cu': 3.11, 'Hg': 0.75, 'O': 8.16}",134.2,134.2,0.0,1,Hg0.75 Ba2.07 Ca2.07 Cu3.11 O8.16
6371,[6028],Hg0.75Ba2.07Ca2.07Cu3.11O8.187,Hg0.75Ba2.07Ca2.07Cu3.11O8.187,"{'Ba': 2.07, 'Ca': 2.07, 'Cu': 3.11, 'Hg': 0.75, 'O': 8.187}",135.4,135.4,0.0,1,Hg0.75 Ba2.07 Ca2.07 Cu3.11 O8.187
6372,[6029],Hg0.75Ba2.07Ca2.07Cu3.11O8.208,Hg0.75Ba2.07Ca2.07Cu3.11O8.208,"{'Ba': 2.07, 'Ca': 2.07, 'Cu': 3.11, 'Hg': 0.75, 'O': 8.208}",135.8,135.8,0.0,1,Hg0.75 Ba2.07 Ca2.07 Cu3.11 O8.208
6373,[6030],Hg0.75Ba2.07Ca2.07Cu3.11O8.223,Hg0.75Ba2.07Ca2.07Cu3.11O8.223,"{'Ba': 2.07, 'Ca': 2.07, 'Cu': 3.11, 'Hg': 0.75, 'O': 8.223}",133.4,133.4,0.0,1,Hg0.75 Ba2.07 Ca2.07 Cu3.11 O8.223
6374,[7416],La2.1Yb0.2Ba2.1Ca0.4Cu5O11.802,La2.1Yb0.2Ba2.1Ca0.4Cu5O11.802,"{'Ba': 2.1, 'Ca': 0.4, 'Cu': 5.0, 'La': 2.1, 'O': 11.802, 'Yb': 0.2}",47.0,47.0,0.0,1,La2.1 Yb0.2 Ba2.1 Ca0.4 Cu5 O11.802
6375,[1051],Y0.9Ba2.1Cu3O7-Z,Y0.9Ba2.1Cu3O7,"{'Ba': 2.1, 'Cu': 3.0, 'O': 7.0, 'Y': 0.9}",92.0,92.0,0.0,1,Y0.9 Ba2.1 Cu3 O7
6376,[10359],La1.7Gd1.3Ca1Ba2.2Sr0.8Cu6.44In0.56O16.6,La1.7Gd1.3Ca1Ba2.2Sr0.8Cu6.44In0.56O16.6,"{'Ba': 2.2, 'Ca': 1.0, 'Cu': 6.44, 'Gd': 1.3, 'In': 0.56, 'La': 1.7000000000000002, 'O': 16.6, 'Sr': 0.8}",30.0,30.0,0.0,1,La1.7 Gd1.3 Ca1 Ba2.2 Sr0.8 Cu6.44 In0.56 O16.6
6377,[3862],Y1Ba2.2Cu4O8,Y1Ba2.2Cu4O8,"{'Ba': 2.2, 'Cu': 4.0, 'O': 8.0, 'Y': 1.0}",80.0,80.0,0.0,1,Y1 Ba2.2 Cu4 O8
6378,[4882],La2.25Ca1.5Ba2.25Cu6O13.93,La2.25Ca1.5Ba2.25Cu6O13.93,"{'Ba': 2.25, 'Ca': 1.5, 'Cu': 6.0, 'La': 2.25, 'O': 13.93}",74.0,74.0,0.0,1,La2.25 Ca1.5 Ba2.25 Cu6 O13.93
6379,[7415],La2.3Yb0.1Ba2.3Ca0.2Cu5O11.805,La2.3Yb0.1Ba2.3Ca0.2Cu5O11.805,"{'Ba': 2.3, 'Ca': 0.2, 'Cu': 5.0, 'La': 2.3, 'O': 11.805, 'Yb': 0.1}",25.0,25.0,0.0,1,La2.3 Yb0.1 Ba2.3 Ca0.2 Cu5 O11.805
6380,[4881],La2.375Ca1.25Ba2.375Cu6O14.062,La2.375Ca1.25Ba2.375Cu6O14.062,"{'Ba': 2.375, 'Ca': 1.25, 'Cu': 6.0, 'La': 2.375, 'O': 14.062}",78.0,78.0,0.0,1,La2.375 Ca1.25 Ba2.375 Cu6 O14.062
6381,[10358],La1.9Gd1.1Ca1Ba2.4Sr0.6Cu6.58In0.42O16.554,La1.9Gd1.1Ca1Ba2.4Sr0.6Cu6.58In0.42O16.554,"{'Ba': 2.4, 'Ca': 1.0, 'Cu': 6.58, 'Gd': 1.1, 'In': 0.42, 'La': 1.9, 'O': 16.554, 'Sr': 0.6000000000000001}",58.0,58.0,0.0,1,La1.9 Gd1.1 Ca1 Ba2.4 Sr0.6 Cu6.58 In0.42 O16.554
6382,[4880],La2.4Ca1.2Ba2.4Cu6O14.082,La2.4Ca1.2Ba2.4Cu6O14.082,"{'Ba': 2.4, 'Ca': 1.2, 'Cu': 6.0, 'La': 2.4, 'O': 14.082}",79.0,79.0,0.0,1,La2.4 Ca1.2 Ba2.4 Cu6 O14.082
6383,[43],Y1.6Ba2.4Cu3O10-X,Y1.6Ba2.4Cu3O10,"{'Ba': 2.4, 'Cu': 3.0, 'O': 10.0, 'Y': 1.6}",90.0,90.0,0.0,1,Y1.6 Ba2.4 Cu3 O10
6384,[4879],La2.5Ca1Ba2.5Cu6O14.146,La2.5Ca1Ba2.5Cu6O14.146,"{'Ba': 2.5, 'Ca': 1.0, 'Cu': 6.0, 'La': 2.5, 'O': 14.146}",79.0,79.0,0.0,1,La2.5 Ca1 Ba2.5 Cu6 O14.146
6385,[4887],La2.57Ca0.86Ba2.57Cu6O14.2,La2.57Ca0.86Ba2.57Cu6O14.2,"{'Ba': 2.5700000000000003, 'Ca': 0.86, 'Cu': 6.0, 'La': 2.5700000000000003, 'O': 14.2}",80.0,80.0,0.0,1,La2.57 Ca0.86 Ba2.57 Cu6 O14.2
6386,[10357],La2.1Gd0.9Ca1Ba2.6Sr0.4Cu6.72In0.28O16.54,La2.1Gd0.9Ca1Ba2.6Sr0.4Cu6.72In0.28O16.54,"{'Ba': 2.6, 'Ca': 1.0, 'Cu': 6.72, 'Gd': 0.9, 'In': 0.28, 'La': 2.1, 'O': 16.54, 'Sr': 0.4}",65.0,65.0,0.0,1,La2.1 Gd0.9 Ca1 Ba2.6 Sr0.4 Cu6.72 In0.28 O16.54
6387,[4886],La2.7Ca0.6Ba2.7Cu6O14.186,La2.7Ca0.6Ba2.7Cu6O14.186,"{'Ba': 2.7, 'Ca': 0.6000000000000001, 'Cu': 6.0, 'La': 2.7, 'O': 14.186}",74.0,74.0,0.0,1,La2.7 Ca0.6 Ba2.7 Cu6 O14.186
6388,[4885],La2.77Ca0.46Ba2.77Cu6O14.246,La2.77Ca0.46Ba2.77Cu6O14.246,"{'Ba': 2.77, 'Ca': 0.46, 'Cu': 6.0, 'La': 2.77, 'O': 14.246}",42.0,42.0,0.0,1,La2.77 Ca0.46 Ba2.77 Cu6 O14.246
6389,[10356],La2.3Gd0.7Ca1Ba2.8Sr0.2Cu6.86In0.14O16.536,La2.3Gd0.7Ca1Ba2.8Sr0.2Cu6.86In0.14O16.536,"{'Ba': 2.8, 'Ca': 1.0, 'Cu': 6.86, 'Gd': 0.7000000000000001, 'In': 0.14, 'La': 2.3, 'O': 16.536, 'Sr': 0.2}",72.0,72.0,0.0,1,La2.3 Gd0.7 Ca1 Ba2.8 Sr0.2 Cu6.86 In0.14 O16.536
6390,[5759],La2.1Gd0.7Ca1.4Ba2.8Cu0.7O16.471,La2.1Gd0.7Ca1.4Ba2.8Cu0.7O16.471,"{'Ba': 2.8, 'Ca': 1.4, 'Cu': 0.7000000000000001, 'Gd': 0.7000000000000001, 'La': 2.1, 'O': 16.471}",79.0,79.0,0.0,1,La2.1 Gd0.7 Ca1.4 Ba2.8 Cu0.7 O16.471
6391,[6471],La2.1Y0.7Ca1.4Ba2.8Cu7O16.433,La2.1Y0.7Ca1.4Ba2.8Cu7O16.433,"{'Ba': 2.8, 'Ca': 1.4, 'Cu': 7.0, 'La': 2.1, 'O': 16.433, 'Y': 0.7000000000000001}",79.0,79.0,0.0,1,La2.1 Y0.7 Ca1.4 Ba2.8 Cu7 O16.433
6392,[4884],La2.85Ca0.3Ba2.85Cu6O14.252,La2.85Ca0.3Ba2.85Cu6O14.252,"{'Ba': 2.85, 'Ca': 0.30000000000000004, 'Cu': 6.0, 'La': 2.85, 'O': 14.252}",22.0,22.0,0.0,1,La2.85 Ca0.3 Ba2.85 Cu6 O14.252
6393,[10721],Y1Ba2.85La0.15Cu3O7-z,Y1Ba2.85La0.15Cu3O7,"{'Ba': 2.85, 'Cu': 3.0, 'La': 0.15, 'O': 7.0, 'Y': 1.0}",89.9,89.9,0.0,1,Y1 Ba2.85 La0.15 Cu3 O7
6394,[10730],Y1Ba2.85Nd0.15Cu3O7-z,Y1Ba2.85Nd0.15Cu3O7,"{'Ba': 2.85, 'Cu': 3.0, 'Nd': 0.15, 'O': 7.0, 'Y': 1.0}",93.2,93.2,0.0,1,Y1 Ba2.85 Nd0.15 Cu3 O7
6395,[10726],Y1Ba2.85Pr0.15Cu3O7-z,Y1Ba2.85Pr0.15Cu3O7,"{'Ba': 2.85, 'Cu': 3.0, 'O': 7.0, 'Pr': 0.15, 'Y': 1.0}",83.6,83.6,0.0,1,Y1 Ba2.85 Pr0.15 Cu3 O7
6396,[10720],Y1Ba2.88La0.12Cu3O7-z,Y1Ba2.88La0.12Cu3O7,"{'Ba': 2.88, 'Cu': 3.0, 'La': 0.12, 'O': 7.0, 'Y': 1.0}",93.3,93.3,0.0,1,Y1 Ba2.88 La0.12 Cu3 O7