,sc_id,supercon_formula,cleaned_formula,material_dict,highest_Tc,average_Tc,std_Tc,entry_count,composition
4190,[10657],Y0.92Ca0.08Ba2Cu3O7-z,Y0.92Ca0.08Ba2Cu3O7,"{'Ba': 2.0, 'Ca': 0.08, 'Cu': 3.0, 'O': 7.0, 'Y': 0.92}",87.0,87.0,0.0,1,Y0.92 Ca0.08 Ba2 Cu3 O7
4191,[6205],Y0.5Pr0.2Cd0.2Ca0.1Ba2Cu3O7-Z,Y0.5Pr0.2Cd0.2Ca0.1Ba2Cu3O7,"{'Ba': 2.0, 'Ca': 0.1, 'Cd': 0.2, 'Cu': 3.0, 'O': 7.0, 'Pr': 0.2, 'Y': 0.5}",54.0,54.0,0.0,1,Y0.5 Pr0.2 Cd0.2 Ca0.1 Ba2 Cu3 O7
4192,"[3424, 8124]",Lu0.8Ce0.1Ca0.1Ba2Cu3O7-z,Lu0.8Ce0.1Ca0.1Ba2Cu3O7,"{'Ba': 2.0, 'Ca': 0.1, 'Ce': 0.1, 'Cu': 3.0, 'Lu': 0.8, 'O': 7.0}",74.0,73.5,0.5,2,Lu0.8 Ce0.1 Ca0.1 Ba2 Cu3 O7
4193,[9397],Y0.8Ce0.1Ca0.1Ba2Cu4O8,Y0.8Ce0.1Ca0.1Ba2Cu4O8,"{'Ba': 2.0, 'Ca': 0.1, 'Ce': 0.1, 'Cu': 4.0, 'O': 8.0, 'Y': 0.8}",63.0,63.0,0.0,1,Y0.8 Ce0.1 Ca0.1 Ba2 Cu4 O8
4194,"[3425, 8126]",Lu0.75Ce0.15Ca0.1Ba2Cu3O7-z,Lu0.75Ce0.15Ca0.1Ba2Cu3O7,"{'Ba': 2.0, 'Ca': 0.1, 'Ce': 0.15, 'Cu': 3.0, 'Lu': 0.75, 'O': 7.0}",70.0,69.5,0.5,2,Lu0.75 Ce0.15 Ca0.1 Ba2 Cu3 O7
4195,[6580],Y0.9Ca0.1Ba2Cu2.9Co0.1O6.76,Y0.9Ca0.1Ba2Cu2.9Co0.1O6.76,"{'Ba': 2.0, 'Ca': 0.1, 'Co': 0.1, 'Cu': 2.9, 'O': 6.76, 'Y': 0.9}",57.5,57.5,0.0,1,Y0.9 Ca0.1 Ba2 Cu2.9 Co0.1 O6.76
4196,[6573],Y0.9Ca0.1Ba2Cu2.9Co0.1O6.84,Y0.9Ca0.1Ba2Cu2.9Co0.1O6.84,"{'Ba': 2.0, 'Ca': 0.1, 'Co': 0.1, 'Cu': 2.9, 'O': 6.84, 'Y': 0.9}",69.5,69.5,0.0,1,Y0.9 Ca0.1 Ba2 Cu2.9 Co0.1 O6.84
4197,[6566],Y0.9Ca0.1Ba2Cu2.9Co0.1O6.95,Y0.9Ca0.1Ba2Cu2.9Co0.1O6.95,"{'Ba': 2.0, 'Ca': 0.1, 'Co': 0.1, 'Cu': 2.9, 'O': 6.95, 'Y': 0.9}",88.0,88.0,0.0,1,Y0.9 Ca0.1 Ba2 Cu2.9 Co0.1 O6.95
4198,[3163],Y0.9Ca0.1Ba2Cu2.85Co0.15O6.91,Y0.9Ca0.1Ba2Cu2.85Co0.15O6.91,"{'Ba': 2.0, 'Ca': 0.1, 'Co': 0.15, 'Cu': 2.85, 'O': 6.91, 'Y': 0.9}",84.0,84.0,0.0,1,Y0.9 Ca0.1 Ba2 Cu2.85 Co0.15 O6.91
4199,[9320],Y0.9Ca0.1Ba2Cu2.75Co0.25O7.03,Y0.9Ca0.1Ba2Cu2.75Co0.25O7.03,"{'Ba': 2.0, 'Ca': 0.1, 'Co': 0.25, 'Cu': 2.75, 'O': 7.03, 'Y': 0.9}",76.9,76.9,0.0,1,Y0.9 Ca0.1 Ba2 Cu2.75 Co0.25 O7.03
4200,[3157],Y0.9Ca0.1Ba2Cu2.55Co0.45O7.02,Y0.9Ca0.1Ba2Cu2.55Co0.45O7.02,"{'Ba': 2.0, 'Ca': 0.1, 'Co': 0.45, 'Cu': 2.55, 'O': 7.02, 'Y': 0.9}",18.0,18.0,0.0,1,Y0.9 Ca0.1 Ba2 Cu2.55 Co0.45 O7.02
4201,[8312],Hg1.4Tl0.6Ba2Y0.9Ca0.1Cu2O7.88,Hg1.4Tl0.6Ba2Y0.9Ca0.1Cu2O7.88,"{'Ba': 2.0, 'Ca': 0.1, 'Cu': 2.0, 'Hg': 1.4, 'O': 7.88, 'Tl': 0.6000000000000001, 'Y': 0.9}",37.0,37.0,0.0,1,Hg1.4 Tl0.6 Ba2 Y0.9 Ca0.1 Cu2 O7.88
4202,[10169],Hg1.4Tl0.6Ba2Y0.9Ca0.1Cu2O8-z,Hg1.4Tl0.6Ba2Y0.9Ca0.1Cu2O8,"{'Ba': 2.0, 'Ca': 0.1, 'Cu': 2.0, 'Hg': 1.4, 'O': 8.0, 'Tl': 0.6000000000000001, 'Y': 0.9}",39.6,39.6,0.0,1,Hg1.4 Tl0.6 Ba2 Y0.9 Ca0.1 Cu2 O8
4203,[8519],Dy0.9Ca0.1Ba2Cu2.7Zn0.3O6.72,Dy0.9Ca0.1Ba2Cu2.7Zn0.3O6.72,"{'Ba': 2.0, 'Ca': 0.1, 'Cu': 2.7, 'Dy': 0.9, 'O': 6.72, 'Zn': 0.30000000000000004}",21.0,21.0,0.0,1,Dy0.9 Ca0.1 Ba2 Cu2.7 Zn0.3 O6.72
4204,[22363],Y0.9Ca0.1Ba2Cu2.8Zn0.2O6.74,Y0.9Ca0.1Ba2Cu2.8Zn0.2O6.74,"{'Ba': 2.0, 'Ca': 0.1, 'Cu': 2.8, 'O': 6.74, 'Y': 0.9, 'Zn': 0.2}",15.8,15.8,0.0,1,Y0.9 Ca0.1 Ba2 Cu2.8 Zn0.2 O6.74
4205,[8517],Sm0.9Ca0.1Ba2Cu2.8Zn0.2O6.85,Sm0.9Ca0.1Ba2Cu2.8Zn0.2O6.85,"{'Ba': 2.0, 'Ca': 0.1, 'Cu': 2.8, 'O': 6.85, 'Sm': 0.9, 'Zn': 0.2}",42.0,42.0,0.0,1,Sm0.9 Ca0.1 Ba2 Cu2.8 Zn0.2 O6.85
4206,[4064],Y0.9Ca0.1Ba2Cu2.9Ni0.1O6.86,Y0.9Ca0.1Ba2Cu2.9Ni0.1O6.86,"{'Ba': 2.0, 'Ca': 0.1, 'Cu': 2.9, 'Ni': 0.1, 'O': 6.86, 'Y': 0.9}",74.0,74.0,0.0,1,Y0.9 Ca0.1 Ba2 Cu2.9 Ni0.1 O6.86
4207,[4073],Y0.9Ca0.1Ba2Cu2.9Zn0.1O6.81,Y0.9Ca0.1Ba2Cu2.9Zn0.1O6.81,"{'Ba': 2.0, 'Ca': 0.1, 'Cu': 2.9, 'O': 6.8100000000000005, 'Y': 0.9, 'Zn': 0.1}",50.0,50.0,0.0,1,Y0.9 Ca0.1 Ba2 Cu2.9 Zn0.1 O6.81
4208,[9050],Er0.7Pr0.2Ca0.1Ba2Cu3O7-Z,Er0.7Pr0.2Ca0.1Ba2Cu3O7,"{'Ba': 2.0, 'Ca': 0.1, 'Cu': 3.0, 'Er': 0.7000000000000001, 'O': 7.0, 'Pr': 0.2}",78.0,78.0,0.0,1,Er0.7 Pr0.2 Ca0.1 Ba2 Cu3 O7
4209,[4866],Er0.75Ca0.1Hf0.15Ba2Cu3O6.796,Er0.75Ca0.1Hf0.15Ba2Cu3O6.796,"{'Ba': 2.0, 'Ca': 0.1, 'Cu': 3.0, 'Er': 0.75, 'Hf': 0.15, 'O': 6.796}",73.6,73.6,0.0,1,Er0.75 Ca0.1 Hf0.15 Ba2 Cu3 O6.796
4210,[9055],Er0.8Pr0.1Ca0.1Ba2Cu3O7-Z,Er0.8Pr0.1Ca0.1Ba2Cu3O7,"{'Ba': 2.0, 'Ca': 0.1, 'Cu': 3.0, 'Er': 0.8, 'O': 7.0, 'Pr': 0.1}",77.0,77.0,0.0,1,Er0.8 Pr0.1 Ca0.1 Ba2 Cu3 O7
4211,[3855],Er0.9Ca0.1Ba2Cu3O6.93,Er0.9Ca0.1Ba2Cu3O6.93,"{'Ba': 2.0, 'Ca': 0.1, 'Cu': 3.0, 'Er': 0.9, 'O': 6.93}",82.5,82.5,0.0,1,Er0.9 Ca0.1 Ba2 Cu3 O6.93
4212,[4534],Gd0.7Pr0.2Ca0.1Ba2Cu3O7,Gd0.7Pr0.2Ca0.1Ba2Cu3O7,"{'Ba': 2.0, 'Ca': 0.1, 'Cu': 3.0, 'Gd': 0.7000000000000001, 'O': 7.0, 'Pr': 0.2}",64.4,64.4,0.0,1,Gd0.7 Pr0.2 Ca0.1 Ba2 Cu3 O7
4213,[7103],Gd0.75Ca0.1Hf0.15Ba2Cu3O6.89,Gd0.75Ca0.1Hf0.15Ba2Cu3O6.89,"{'Ba': 2.0, 'Ca': 0.1, 'Cu': 3.0, 'Gd': 0.75, 'Hf': 0.15, 'O': 6.89}",82.7,82.7,0.0,1,Gd0.75 Ca0.1 Hf0.15 Ba2 Cu3 O6.89
4214,[6823],Gd0.75Ca0.1Mo0.15Ba2Cu3O6.671,Gd0.75Ca0.1Mo0.15Ba2Cu3O6.671,"{'Ba': 2.0, 'Ca': 0.1, 'Cu': 3.0, 'Gd': 0.75, 'Mo': 0.15, 'O': 6.671}",75.1,75.1,0.0,1,Gd0.75 Ca0.1 Mo0.15 Ba2 Cu3 O6.671
4215,[10088],Gd0.75Pr0.15Ca0.1Ba2Cu3O7-z,Gd0.75Pr0.15Ca0.1Ba2Cu3O7,"{'Ba': 2.0, 'Ca': 0.1, 'Cu': 3.0, 'Gd': 0.75, 'O': 7.0, 'Pr': 0.15}",71.5,71.5,0.0,1,Gd0.75 Pr0.15 Ca0.1 Ba2 Cu3 O7
4216,[10082],Gd0.8Pr0.1Ca0.1Ba2Cu3O7-z,Gd0.8Pr0.1Ca0.1Ba2Cu3O7,"{'Ba': 2.0, 'Ca': 0.1, 'Cu': 3.0, 'Gd': 0.8, 'O': 7.0, 'Pr': 0.1}",77.4,77.4,0.0,1,Gd0.8 Pr0.1 Ca0.1 Ba2 Cu3 O7
4217,"[5205, 10077]",Gd0.9Ca0.1Ba2Cu3O7-z,Gd0.9Ca0.1Ba2Cu3O7,"{'Ba': 2.0, 'Ca': 0.1, 'Cu': 3.0, 'Gd': 0.9, 'O': 7.0}",88.0,84.15,3.85,2,Gd0.9 Ca0.1 Ba2 Cu3 O7
4218,[5206],Ho0.9Ca0.1Ba2Cu3O7-z,Ho0.9Ca0.1Ba2Cu3O7,"{'Ba': 2.0, 'Ca': 0.1, 'Cu': 3.0, 'Ho': 0.9, 'O': 7.0}",89.0,89.0,0.0,1,Ho0.9 Ca0.1 Ba2 Cu3 O7
4219,[8138],Lu0.5Pr0.4Ca0.1Ba2Cu3O7-d,Lu0.5Pr0.4Ca0.1Ba2Cu3O7,"{'Ba': 2.0, 'Ca': 0.1, 'Cu': 3.0, 'Lu': 0.5, 'O': 7.0, 'Pr': 0.4}",57.0,57.0,0.0,1,Lu0.5 Pr0.4 Ca0.1 Ba2 Cu3 O7
4220,"[3435, 8136]",Lu0.6Pr0.3Ca0.1Ba2Cu3O7-z,Lu0.6Pr0.3Ca0.1Ba2Cu3O7,"{'Ba': 2.0, 'Ca': 0.1, 'Cu': 3.0, 'Lu': 0.6000000000000001, 'O': 7.0, 'Pr': 0.30000000000000004}",74.0,67.25,6.75,2,Lu0.6 Pr0.3 Ca0.1 Ba2 Cu3 O7
4221,"[3433, 8134]",Lu0.7Pr0.2Ca0.1Ba2Cu3O7-z,Lu0.7Pr0.2Ca0.1Ba2Cu3O7,"{'Ba': 2.0, 'Ca': 0.1, 'Cu': 3.0, 'Lu': 0.7000000000000001, 'O': 7.0, 'Pr': 0.2}",76.0,75.0,1.0,2,Lu0.7 Pr0.2 Ca0.1 Ba2 Cu3 O7
4222,"[3430, 8132]",Lu0.8Pr0.1Ca0.1Ba2Cu3O7-z,Lu0.8Pr0.1Ca0.1Ba2Cu3O7,"{'Ba': 2.0, 'Ca': 0.1, 'Cu': 3.0, 'Lu': 0.8, 'O': 7.0, 'Pr': 0.1}",78.0,78.0,0.0,2,Lu0.8 Pr0.1 Ca0.1 Ba2 Cu3 O7
4223,[5696],Lu0.9Ca0.1Ba2Cu3O6+z,Lu0.9Ca0.1Ba2Cu3O6,"{'Ba': 2.0, 'Ca': 0.1, 'Cu': 3.0, 'Lu': 0.9, 'O': 6.0}",18.0,18.0,0.0,1,Lu0.9 Ca0.1 Ba2 Cu3 O6
4224,[10457],Nd0.8Ca0.1Pr0.1Ba2Cu3O7-z,Nd0.8Ca0.1Pr0.1Ba2Cu3O7,"{'Ba': 2.0, 'Ca': 0.1, 'Cu': 3.0, 'Nd': 0.8, 'O': 7.0, 'Pr': 0.1}",70.8,70.8,0.0,1,Nd0.8 Ca0.1 Pr0.1 Ba2 Cu3 O7
4225,[5133],Nd0.8Ca0.1Pr0.1Ba2Cu3O7.02,Nd0.8Ca0.1Pr0.1Ba2Cu3O7.02,"{'Ba': 2.0, 'Ca': 0.1, 'Cu': 3.0, 'Nd': 0.8, 'O': 7.02, 'Pr': 0.1}",70.8,70.8,0.0,1,Nd0.8 Ca0.1 Pr0.1 Ba2 Cu3 O7.02
4226,[7095],Nd0.9Ca0.1Ba2Cu3O6.63,Nd0.9Ca0.1Ba2Cu3O6.63,"{'Ba': 2.0, 'Ca': 0.1, 'Cu': 3.0, 'Nd': 0.9, 'O': 6.63}",84.5,84.5,0.0,1,Nd0.9 Ca0.1 Ba2 Cu3 O6.63
4227,"[5204, 7320]",Nd0.9Ca0.1Ba2Cu3O7-z,Nd0.9Ca0.1Ba2Cu3O7,"{'Ba': 2.0, 'Ca': 0.1, 'Cu': 3.0, 'Nd': 0.9, 'O': 7.0}",86.0,85.67,0.33,2,Nd0.9 Ca0.1 Ba2 Cu3 O7
4228,[5852],Y0.9Ca0.1Ba2Cu3O6.03,Y0.9Ca0.1Ba2Cu3O6.03,"{'Ba': 2.0, 'Ca': 0.1, 'Cu': 3.0, 'O': 6.03, 'Y': 0.9}",19.8,19.8,0.0,1,Y0.9 Ca0.1 Ba2 Cu3 O6.03
4229,[4828],Y0.9Ca0.1Ba2Cu3O6.3,Y0.9Ca0.1Ba2Cu3O6.3,"{'Ba': 2.0, 'Ca': 0.1, 'Cu': 3.0, 'O': 6.3, 'Y': 0.9}",28.1,28.1,0.0,1,Y0.9 Ca0.1 Ba2 Cu3 O6.3
4230,[4722],Y0.9Ca0.1Ba2Cu3O6.4,Y0.9Ca0.1Ba2Cu3O6.4,"{'Ba': 2.0, 'Ca': 0.1, 'Cu': 3.0, 'O': 6.4, 'Y': 0.9}",41.8,41.8,0.0,1,Y0.9 Ca0.1 Ba2 Cu3 O6.4
4231,"[4721, 5849]",Y0.9Ca0.1Ba2Cu3O6.5,Y0.9Ca0.1Ba2Cu3O6.5,"{'Ba': 2.0, 'Ca': 0.1, 'Cu': 3.0, 'O': 6.5, 'Y': 0.9}",79.3,66.9,12.4,2,Y0.9 Ca0.1 Ba2 Cu3 O6.5
4232,[5092],Y0.9Ca0.1Ba2Cu3O6.59,Y0.9Ca0.1Ba2Cu3O6.59,"{'Ba': 2.0, 'Ca': 0.1, 'Cu': 3.0, 'O': 6.59, 'Y': 0.9}",68.8,68.8,0.0,1,Y0.9 Ca0.1 Ba2 Cu3 O6.59
4233,[4720],Y0.9Ca0.1Ba2Cu3O6.6,Y0.9Ca0.1Ba2Cu3O6.6,"{'Ba': 2.0, 'Ca': 0.1, 'Cu': 3.0, 'O': 6.6, 'Y': 0.9}",65.3,65.3,0.0,1,Y0.9 Ca0.1 Ba2 Cu3 O6.6
4234,[6219],Y0.9Ca0.1Ba2Cu3O6.66,Y0.9Ca0.1Ba2Cu3O6.66,"{'Ba': 2.0, 'Ca': 0.1, 'Cu': 3.0, 'O': 6.66, 'Y': 0.9}",80.0,80.0,0.0,1,Y0.9 Ca0.1 Ba2 Cu3 O6.66
4235,[4922],Y0.9Ca0.1Ba2Cu3O6.67,Y0.9Ca0.1Ba2Cu3O6.67,"{'Ba': 2.0, 'Ca': 0.1, 'Cu': 3.0, 'O': 6.67, 'Y': 0.9}",82.0,82.0,0.0,1,Y0.9 Ca0.1 Ba2 Cu3 O6.67
4236,"[4719, 7698]",Y0.9Ca0.1Ba2Cu3O6.7,Y0.9Ca0.1Ba2Cu3O6.7,"{'Ba': 2.0, 'Ca': 0.1, 'Cu': 3.0, 'O': 6.7, 'Y': 0.9}",75.0,73.0,2.0,2,Y0.9 Ca0.1 Ba2 Cu3 O6.7
4237,[5093],Y0.9Ca0.1Ba2Cu3O6.72,Y0.9Ca0.1Ba2Cu3O6.72,"{'Ba': 2.0, 'Ca': 0.1, 'Cu': 3.0, 'O': 6.72, 'Y': 0.9}",82.6,82.6,0.0,1,Y0.9 Ca0.1 Ba2 Cu3 O6.72
4238,[4718],Y0.9Ca0.1Ba2Cu3O6.8,Y0.9Ca0.1Ba2Cu3O6.8,"{'Ba': 2.0, 'Ca': 0.1, 'Cu': 3.0, 'O': 6.8, 'Y': 0.9}",84.1,84.1,0.0,1,Y0.9 Ca0.1 Ba2 Cu3 O6.8
4239,[5094],Y0.9Ca0.1Ba2Cu3O6.87,Y0.9Ca0.1Ba2Cu3O6.87,"{'Ba': 2.0, 'Ca': 0.1, 'Cu': 3.0, 'O': 6.87, 'Y': 0.9}",85.4,85.4,0.0,1,Y0.9 Ca0.1 Ba2 Cu3 O6.87
4240,[4717],Y0.9Ca0.1Ba2Cu3O6.9,Y0.9Ca0.1Ba2Cu3O6.9,"{'Ba': 2.0, 'Ca': 0.1, 'Cu': 3.0, 'O': 6.9, 'Y': 0.9}",88.6,88.6,0.0,1,Y0.9 Ca0.1 Ba2 Cu3 O6.9
4241,"[4910, 9842]",Y0.9Ca0.1Ba2Cu3O6.91,Y0.9Ca0.1Ba2Cu3O6.91,"{'Ba': 2.0, 'Ca': 0.1, 'Cu': 3.0, 'O': 6.91, 'Y': 0.9}",84.2,81.1,3.1,2,Y0.9 Ca0.1 Ba2 Cu3 O6.91
4242,[6212],Y0.9Ca0.1Ba2Cu3O6.93,Y0.9Ca0.1Ba2Cu3O6.93,"{'Ba': 2.0, 'Ca': 0.1, 'Cu': 3.0, 'O': 6.93, 'Y': 0.9}",83.3,83.3,0.0,1,Y0.9 Ca0.1 Ba2 Cu3 O6.93
4243,[1425],Y0.8Ca0.1Pr0.1Ba2Cu3O6.95,Y0.8Ca0.1Pr0.1Ba2Cu3O6.95,"{'Ba': 2.0, 'Ca': 0.1, 'Cu': 3.0, 'O': 6.95, 'Pr': 0.1, 'Y': 0.8}",81.4,81.4,0.0,1,Y0.8 Ca0.1 Pr0.1 Ba2 Cu3 O6.95
4244,[1434],Y0.75Ca0.1Pr0.15Ba2Cu3O6.95,Y0.75Ca0.1Pr0.15Ba2Cu3O6.95,"{'Ba': 2.0, 'Ca': 0.1, 'Cu': 3.0, 'O': 6.95, 'Pr': 0.15, 'Y': 0.75}",79.6,79.6,0.0,1,Y0.75 Ca0.1 Pr0.15 Ba2 Cu3 O6.95
4245,[1437],Y0.7Ca0.1Pr0.2Ba2Cu3O6.95,Y0.7Ca0.1Pr0.2Ba2Cu3O6.95,"{'Ba': 2.0, 'Ca': 0.1, 'Cu': 3.0, 'O': 6.95, 'Pr': 0.2, 'Y': 0.7000000000000001}",77.1,77.1,0.0,1,Y0.7 Ca0.1 Pr0.2 Ba2 Cu3 O6.95
4246,[8063],Y0.9Ca0.1Ba2Cu3O6.96,Y0.9Ca0.1Ba2Cu3O6.96,"{'Ba': 2.0, 'Ca': 0.1, 'Cu': 3.0, 'O': 6.96, 'Y': 0.9}",81.5,81.5,0.0,1,Y0.9 Ca0.1 Ba2 Cu3 O6.96
4247,[5095],Y0.9Ca0.1Ba2Cu3O6.98,Y0.9Ca0.1Ba2Cu3O6.98,"{'Ba': 2.0, 'Ca': 0.1, 'Cu': 3.0, 'O': 6.98, 'Y': 0.9}",81.8,81.8,0.0,1,Y0.9 Ca0.1 Ba2 Cu3 O6.98
4248,[10653],Y0.8Pr0.1Ca0.1Ba2Cu3O7-z,Y0.8Pr0.1Ca0.1Ba2Cu3O7,"{'Ba': 2.0, 'Ca': 0.1, 'Cu': 3.0, 'O': 7.0, 'Pr': 0.1, 'Y': 0.8}",83.0,83.0,0.0,1,Y0.8 Pr0.1 Ca0.1 Ba2 Cu3 O7
4249,"[2233, 8092]",Y0.7Pr0.2Ca0.1Ba2Cu3O7-Z,Y0.7Pr0.2Ca0.1Ba2Cu3O7,"{'Ba': 2.0, 'Ca': 0.1, 'Cu': 3.0, 'O': 7.0, 'Pr': 0.2, 'Y': 0.7000000000000001}",77.8,67.9,9.9,2,Y0.7 Pr0.2 Ca0.1 Ba2 Cu3 O7
4250,[5207],Tm0.9Ca0.1Ba2Cu3O7-z,Tm0.9Ca0.1Ba2Cu3O7,"{'Ba': 2.0, 'Ca': 0.1, 'Cu': 3.0, 'O': 7.0, 'Tm': 0.9}",86.0,86.0,0.0,1,Tm0.9 Ca0.1 Ba2 Cu3 O7
4251,[4716],Y0.9Ca0.1Ba2Cu3O7,Y0.9Ca0.1Ba2Cu3O7,"{'Ba': 2.0, 'Ca': 0.1, 'Cu': 3.0, 'O': 7.0, 'Y': 0.9}",81.8,81.8,0.0,1,Y0.9 Ca0.1 Ba2 Cu3 O7
4252,[2534],Y0.8Ca0.1Pr0.1Ba2Cu3O7.01,Y0.8Ca0.1Pr0.1Ba2Cu3O7.01,"{'Ba': 2.0, 'Ca': 0.1, 'Cu': 3.0, 'O': 7.01, 'Pr': 0.1, 'Y': 0.8}",78.4,78.4,0.0,1,Y0.8 Ca0.1 Pr0.1 Ba2 Cu3 O7.01
4253,[1121],Ho0.9Ca0.1Ba2Cu4O8,Ho0.9Ca0.1Ba2Cu4O8,"{'Ba': 2.0, 'Ca': 0.1, 'Cu': 4.0, 'Ho': 0.9, 'O': 8.0}",87.0,87.0,0.0,1,Ho0.9 Ca0.1 Ba2 Cu4 O8
4254,[3449],Y0.85Pr0.05Ca0.1Ba2Cu4O8,Y0.85Pr0.05Ca0.1Ba2Cu4O8,"{'Ba': 2.0, 'Ca': 0.1, 'Cu': 4.0, 'O': 8.0, 'Pr': 0.05, 'Y': 0.85}",83.8,83.8,0.0,1,Y0.85 Pr0.05 Ca0.1 Ba2 Cu4 O8
4255,[3450],Y0.8Pr0.1Ca0.1Ba2Cu4O8,Y0.8Pr0.1Ca0.1Ba2Cu4O8,"{'Ba': 2.0, 'Ca': 0.1, 'Cu': 4.0, 'O': 8.0, 'Pr': 0.1, 'Y': 0.8}",80.0,80.0,0.0,1,Y0.8 Pr0.1 Ca0.1 Ba2 Cu4 O8
4256,[3451],Y0.75Pr0.15Ca0.1Ba2Cu4O8,Y0.75Pr0.15Ca0.1Ba2Cu4O8,"{'Ba': 2.0, 'Ca': 0.1, 'Cu': 4.0, 'O': 8.0, 'Pr': 0.15, 'Y': 0.75}",76.2,76.2,0.0,1,Y0.75 Pr0.15 Ca0.1 Ba2 Cu4 O8
4257,[3452],Y0.7Pr0.2Ca0.1Ba2Cu4O8,Y0.7Pr0.2Ca0.1Ba2Cu4O8,"{'Ba': 2.0, 'Ca': 0.1, 'Cu': 4.0, 'O': 8.0, 'Pr': 0.2, 'Y': 0.7000000000000001}",73.4,73.4,0.0,1,Y0.7 Pr0.2 Ca0.1 Ba2 Cu4 O8
4258,"[1127, 1535, 3210, 3448, 3851, 5325, 7200, 9411]",Y0.9Ca0.1Ba2Cu4O8,Y0.9Ca0.1Ba2Cu4O8,"{'Ba': 2.0, 'Ca': 0.1, 'Cu': 4.0, 'O': 8.0, 'Y': 0.9}",91.0,87.625,3.2961151376,8,Y0.9 Ca0.1 Ba2 Cu4 O8
4259,[6399],Y0.899Ca0.101Ba2Cu3O6.943,Y0.899Ca0.101Ba2Cu3O6.943,"{'Ba': 2.0, 'Ca': 0.101, 'Cu': 3.0, 'O': 6.943, 'Y': 0.899}",83.0,83.0,0.0,1,Y0.899 Ca0.101 Ba2 Cu3 O6.943
4260,[3167],Y0.88Ca0.12Ba2Cu2.88Co0.12O6.78,Y0.88Ca0.12Ba2Cu2.88Co0.12O6.78,"{'Ba': 2.0, 'Ca': 0.12, 'Co': 0.12, 'Cu': 2.88, 'O': 6.78, 'Y': 0.88}",87.0,87.0,0.0,1,Y0.88 Ca0.12 Ba2 Cu2.88 Co0.12 O6.78
4261,[5079],Er0.88Ca0.12Ba2Cu2.28Co0.18O6.93,Er0.88Ca0.12Ba2Cu2.28Co0.18O6.93,"{'Ba': 2.0, 'Ca': 0.12, 'Co': 0.18, 'Cu': 2.2800000000000002, 'Er': 0.88, 'O': 6.93}",77.5,77.5,0.0,1,Er0.88 Ca0.12 Ba2 Cu2.28 Co0.18 O6.93
4262,[5033],Er0.88Ca0.12Ba2Cu2.82Co0.18O6.93,Er0.88Ca0.12Ba2Cu2.82Co0.18O6.93,"{'Ba': 2.0, 'Ca': 0.12, 'Co': 0.18, 'Cu': 2.8200000000000003, 'Er': 0.88, 'O': 6.93}",77.5,77.5,0.0,1,Er0.88 Ca0.12 Ba2 Cu2.82 Co0.18 O6.93
4263,[9838],Y0.88Ca0.12Ba2Cu3O6,Y0.88Ca0.12Ba2Cu3O6,"{'Ba': 2.0, 'Ca': 0.12, 'Cu': 3.0, 'O': 6.0, 'Y': 0.88}",0.0,0.0,0.0,1,Y0.88 Ca0.12 Ba2 Cu3 O6
4264,[9412],Y0.88Ca0.12Ba2Cu4O8,Y0.88Ca0.12Ba2Cu4O8,"{'Ba': 2.0, 'Ca': 0.12, 'Cu': 4.0, 'O': 8.0, 'Y': 0.88}",88.5,88.5,0.0,1,Y0.88 Ca0.12 Ba2 Cu4 O8
4265,[6400],Y0.868Ca0.132Ba2Cu3O6.928,Y0.868Ca0.132Ba2Cu3O6.928,"{'Ba': 2.0, 'Ca': 0.132, 'Cu': 3.0, 'O': 6.928, 'Y': 0.868}",75.0,75.0,0.0,1,Y0.868 Ca0.132 Ba2 Cu3 O6.928
4266,"[3426, 8127]",Lu0.7Ce0.15Ca0.15Ba2Cu3O7-z,Lu0.7Ce0.15Ca0.15Ba2Cu3O7,"{'Ba': 2.0, 'Ca': 0.15, 'Ce': 0.15, 'Cu': 3.0, 'Lu': 0.7000000000000001, 'O': 7.0}",66.0,62.0,4.0,2,Lu0.7 Ce0.15 Ca0.15 Ba2 Cu3 O7
4267,[6581],Y0.85Ca0.15Ba2Cu2.85Co0.15O6.78,Y0.85Ca0.15Ba2Cu2.85Co0.15O6.78,"{'Ba': 2.0, 'Ca': 0.15, 'Co': 0.15, 'Cu': 2.85, 'O': 6.78, 'Y': 0.85}",57.5,57.5,0.0,1,Y0.85 Ca0.15 Ba2 Cu2.85 Co0.15 O6.78
4268,"[3164, 3168, 6574]",Y0.85Ca0.15Ba2Cu2.85Co0.15O6.83,Y0.85Ca0.15Ba2Cu2.85Co0.15O6.83,"{'Ba': 2.0, 'Ca': 0.15, 'Co': 0.15, 'Cu': 2.85, 'O': 6.83, 'Y': 0.85}",86.0,79.8333333333,8.7209836346,3,Y0.85 Ca0.15 Ba2 Cu2.85 Co0.15 O6.83
4269,[6567],Y0.85Ca0.15Ba2Cu2.85Co0.15O6.97,Y0.85Ca0.15Ba2Cu2.85Co0.15O6.97,"{'Ba': 2.0, 'Ca': 0.15, 'Co': 0.15, 'Cu': 2.85, 'O': 6.97, 'Y': 0.85}",86.0,86.0,0.0,1,Y0.85 Ca0.15 Ba2 Cu2.85 Co0.15 O6.97
4270,[9321],Y0.85Ca0.15Ba2Cu2.75Co0.25O7.01,Y0.85Ca0.15Ba2Cu2.75Co0.25O7.01,"{'Ba': 2.0, 'Ca': 0.15, 'Co': 0.25, 'Cu': 2.75, 'O': 7.01, 'Y': 0.85}",80.6,80.6,0.0,1,Y0.85 Ca0.15 Ba2 Cu2.75 Co0.25 O7.01
4271,[3158],Y0.85Ca0.15Ba2Cu2.55Co0.45O7.08,Y0.85Ca0.15Ba2Cu2.55Co0.45O7.08,"{'Ba': 2.0, 'Ca': 0.15, 'Co': 0.45, 'Cu': 2.55, 'O': 7.08, 'Y': 0.85}",30.0,30.0,0.0,1,Y0.85 Ca0.15 Ba2 Cu2.55 Co0.45 O7.08
4272,[22364],Y0.85Ca0.15Ba2Cu2.8Zn0.2O6.74,Y0.85Ca0.15Ba2Cu2.8Zn0.2O6.74,"{'Ba': 2.0, 'Ca': 0.15, 'Cu': 2.8, 'O': 6.74, 'Y': 0.85, 'Zn': 0.2}",34.6,34.6,0.0,1,Y0.85 Ca0.15 Ba2 Cu2.8 Zn0.2 O6.74
4273,[4065],Y0.85Ca0.15Ba2Cu2.85Ni0.15O6.85,Y0.85Ca0.15Ba2Cu2.85Ni0.15O6.85,"{'Ba': 2.0, 'Ca': 0.15, 'Cu': 2.85, 'Ni': 0.15, 'O': 6.85, 'Y': 0.85}",67.0,67.0,0.0,1,Y0.85 Ca0.15 Ba2 Cu2.85 Ni0.15 O6.85
4274,[4074],Y0.85Ca0.15Ba2Cu2.85Zn0.15O6.85,Y0.85Ca0.15Ba2Cu2.85Zn0.15O6.85,"{'Ba': 2.0, 'Ca': 0.15, 'Cu': 2.85, 'O': 6.85, 'Y': 0.85, 'Zn': 0.15}",43.0,43.0,0.0,1,Y0.85 Ca0.15 Ba2 Cu2.85 Zn0.15 O6.85
4275,[4867],Er0.7Ca0.15Hf0.15Ba2Cu3O6.821,Er0.7Ca0.15Hf0.15Ba2Cu3O6.821,"{'Ba': 2.0, 'Ca': 0.15, 'Cu': 3.0, 'Er': 0.7000000000000001, 'Hf': 0.15, 'O': 6.821}",77.3,77.3,0.0,1,Er0.7 Ca0.15 Hf0.15 Ba2 Cu3 O6.821
4276,[3856],Er0.85Ca0.15Ba2Cu3O6.93,Er0.85Ca0.15Ba2Cu3O6.93,"{'Ba': 2.0, 'Ca': 0.15, 'Cu': 3.0, 'Er': 0.85, 'O': 6.93}",79.5,79.5,0.0,1,Er0.85 Ca0.15 Ba2 Cu3 O6.93
4277,[7104],Gd0.7Ca0.15Hf0.15Ba2Cu3O6.93,Gd0.7Ca0.15Hf0.15Ba2Cu3O6.93,"{'Ba': 2.0, 'Ca': 0.15, 'Cu': 3.0, 'Gd': 0.7000000000000001, 'Hf': 0.15, 'O': 6.93}",83.8,83.8,0.0,1,Gd0.7 Ca0.15 Hf0.15 Ba2 Cu3 O6.93
4278,[6824],Gd0.7Ca0.15Mo0.15Ba2Cu3O6.716,Gd0.7Ca0.15Mo0.15Ba2Cu3O6.716,"{'Ba': 2.0, 'Ca': 0.15, 'Cu': 3.0, 'Gd': 0.7000000000000001, 'Mo': 0.15, 'O': 6.716}",86.3,86.3,0.0,1,Gd0.7 Ca0.15 Mo0.15 Ba2 Cu3 O6.716
4279,[10089],Gd0.7Pr0.15Ca0.15Ba2Cu3O7-z,Gd0.7Pr0.15Ca0.15Ba2Cu3O7,"{'Ba': 2.0, 'Ca': 0.15, 'Cu': 3.0, 'Gd': 0.7000000000000001, 'O': 7.0, 'Pr': 0.15}",72.4,72.4,0.0,1,Gd0.7 Pr0.15 Ca0.15 Ba2 Cu3 O7
4280,[10083],Gd0.75Pr0.1Ca0.15Ba2Cu3O7-z,Gd0.75Pr0.1Ca0.15Ba2Cu3O7,"{'Ba': 2.0, 'Ca': 0.15, 'Cu': 3.0, 'Gd': 0.75, 'O': 7.0, 'Pr': 0.1}",74.2,74.2,0.0,1,Gd0.75 Pr0.1 Ca0.15 Ba2 Cu3 O7
4281,[10078],Gd0.85Ca0.15Ba2Cu3O7-z,Gd0.85Ca0.15Ba2Cu3O7,"{'Ba': 2.0, 'Ca': 0.15, 'Cu': 3.0, 'Gd': 0.85, 'O': 7.0}",79.5,79.5,0.0,1,Gd0.85 Ca0.15 Ba2 Cu3 O7
4282,[6220],Y0.85Ca0.15Ba2Cu3O6.58,Y0.85Ca0.15Ba2Cu3O6.58,"{'Ba': 2.0, 'Ca': 0.15, 'Cu': 3.0, 'O': 6.58, 'Y': 0.85}",80.6,80.6,0.0,1,Y0.85 Ca0.15 Ba2 Cu3 O6.58
4283,[4923],Y0.85Ca0.15Ba2Cu3O6.65,Y0.85Ca0.15Ba2Cu3O6.65,"{'Ba': 2.0, 'Ca': 0.15, 'Cu': 3.0, 'O': 6.65, 'Y': 0.85}",83.0,83.0,0.0,1,Y0.85 Ca0.15 Ba2 Cu3 O6.65
4284,[7699],Y0.85Ca0.15Ba2Cu3O6.71,Y0.85Ca0.15Ba2Cu3O6.71,"{'Ba': 2.0, 'Ca': 0.15, 'Cu': 3.0, 'O': 6.71, 'Y': 0.85}",78.0,78.0,0.0,1,Y0.85 Ca0.15 Ba2 Cu3 O6.71
4285,[4925],Y0.8Pr0.05Ca0.15Ba2Cu3O6.83,Y0.8Pr0.05Ca0.15Ba2Cu3O6.83,"{'Ba': 2.0, 'Ca': 0.15, 'Cu': 3.0, 'O': 6.83, 'Pr': 0.05, 'Y': 0.8}",87.0,87.0,0.0,1,Y0.8 Pr0.05 Ca0.15 Ba2 Cu3 O6.83
4286,[6213],Y0.85Ca0.15Ba2Cu3O6.9,Y0.85Ca0.15Ba2Cu3O6.9,"{'Ba': 2.0, 'Ca': 0.15, 'Cu': 3.0, 'O': 6.9, 'Y': 0.85}",79.0,79.0,0.0,1,Y0.85 Ca0.15 Ba2 Cu3 O6.9
4287,[1435],Y0.7Ca0.15Pr0.15Ba2Cu3O6.95,Y0.7Ca0.15Pr0.15Ba2Cu3O6.95,"{'Ba': 2.0, 'Ca': 0.15, 'Cu': 3.0, 'O': 6.95, 'Pr': 0.15, 'Y': 0.7000000000000001}",77.6,77.6,0.0,1,Y0.7 Ca0.15 Pr0.15 Ba2 Cu3 O6.95
4288,[1439],Y0.65Ca0.15Pr0.2Ba2Cu3O6.95,Y0.65Ca0.15Pr0.2Ba2Cu3O6.95,"{'Ba': 2.0, 'Ca': 0.15, 'Cu': 3.0, 'O': 6.95, 'Pr': 0.2, 'Y': 0.65}",77.1,77.1,0.0,1,Y0.65 Ca0.15 Pr0.2 Ba2 Cu3 O6.95
4289,[10654],Y0.7Pr0.15Ca0.15Ba2Cu3O7-z,Y0.7Pr0.15Ca0.15Ba2Cu3O7,"{'Ba': 2.0, 'Ca': 0.15, 'Cu': 3.0, 'O': 7.0, 'Pr': 0.15, 'Y': 0.7000000000000001}",75.8,75.8,0.0,1,Y0.7 Pr0.15 Ca0.15 Ba2 Cu3 O7
4290,[8093],Y0.65Pr0.2Ca0.15Ba2Cu3O7-d,Y0.65Pr0.2Ca0.15Ba2Cu3O7,"{'Ba': 2.0, 'Ca': 0.15, 'Cu': 3.0, 'O': 7.0, 'Pr': 0.2, 'Y': 0.65}",39.3,39.3,0.0,1,Y0.65 Pr0.2 Ca0.15 Ba2 Cu3 O7
4291,[1122],Ho0.85Ca0.15Ba2Cu4O8,Ho0.85Ca0.15Ba2Cu4O8,"{'Ba': 2.0, 'Ca': 0.15, 'Cu': 4.0, 'Ho': 0.85, 'O': 8.0}",87.0,87.0,0.0,1,Ho0.85 Ca0.15 Ba2 Cu4 O8
4292,"[1128, 9413]",Y0.85Ca0.15Ba2Cu4O8,Y0.85Ca0.15Ba2Cu4O8,"{'Ba': 2.0, 'Ca': 0.15, 'Cu': 4.0, 'O': 8.0, 'Y': 0.85}",90.0,88.9,1.1,2,Y0.85 Ca0.15 Ba2 Cu4 O8
4293,"[5034, 5080]",Er0.82Ca0.18Ba2Cu2.82Co0.18O6.71,Er0.82Ca0.18Ba2Cu2.82Co0.18O6.71,"{'Ba': 2.0, 'Ca': 0.18, 'Co': 0.18, 'Cu': 2.8200000000000003, 'Er': 0.8200000000000001, 'O': 6.71}",84.5,84.5,0.0,2,Er0.82 Ca0.18 Ba2 Cu2.82 Co0.18 O6.71
4294,[6206],Y0.5Pr0.2Cd0.1Ca0.2Ba2Cu3O7-Z,Y0.5Pr0.2Cd0.1Ca0.2Ba2Cu3O7,"{'Ba': 2.0, 'Ca': 0.2, 'Cd': 0.1, 'Cu': 3.0, 'O': 7.0, 'Pr': 0.2, 'Y': 0.5}",68.0,68.0,0.0,1,Y0.5 Pr0.2 Cd0.1 Ca0.2 Ba2 Cu3 O7
4295,[3165],Y0.8Ca0.2Ba2Cu2.85Co0.15O6.84,Y0.8Ca0.2Ba2Cu2.85Co0.15O6.84,"{'Ba': 2.0, 'Ca': 0.2, 'Co': 0.15, 'Cu': 2.85, 'O': 6.84, 'Y': 0.8}",86.0,86.0,0.0,1,Y0.8 Ca0.2 Ba2 Cu2.85 Co0.15 O6.84
4296,[6582],Y0.8Ca0.2Ba2Cu2.8Co0.2O6.78,Y0.8Ca0.2Ba2Cu2.8Co0.2O6.78,"{'Ba': 2.0, 'Ca': 0.2, 'Co': 0.2, 'Cu': 2.8, 'O': 6.78, 'Y': 0.8}",55.5,55.5,0.0,1,Y0.8 Ca0.2 Ba2 Cu2.8 Co0.2 O6.78
4297,[6575],Y0.8Ca0.2Ba2Cu2.8Co0.2O6.83,Y0.8Ca0.2Ba2Cu2.8Co0.2O6.83,"{'Ba': 2.0, 'Ca': 0.2, 'Co': 0.2, 'Cu': 2.8, 'O': 6.83, 'Y': 0.8}",69.0,69.0,0.0,1,Y0.8 Ca0.2 Ba2 Cu2.8 Co0.2 O6.83
4298,[6568],Y0.8Ca0.2Ba2Cu2.8Co0.2O6.98,Y0.8Ca0.2Ba2Cu2.8Co0.2O6.98,"{'Ba': 2.0, 'Ca': 0.2, 'Co': 0.2, 'Cu': 2.8, 'O': 6.98, 'Y': 0.8}",82.5,82.5,0.0,1,Y0.8 Ca0.2 Ba2 Cu2.8 Co0.2 O6.98
4299,[9322],Y0.8Ca0.2Ba2Cu2.75Co0.25O7.01,Y0.8Ca0.2Ba2Cu2.75Co0.25O7.01,"{'Ba': 2.0, 'Ca': 0.2, 'Co': 0.25, 'Cu': 2.75, 'O': 7.01, 'Y': 0.8}",82.2,82.2,0.0,1,Y0.8 Ca0.2 Ba2 Cu2.75 Co0.25 O7.01