,sc_id,supercon_formula,cleaned_formula,material_dict,highest_Tc,average_Tc,std_Tc,entry_count,composition
2905,[7056],La1.8Nd0.1Ba0.1Cu1O4,La1.8Nd0.1Ba0.1Cu1O4,"{'Ba': 0.1, 'Cu': 1.0, 'La': 1.8, 'Nd': 0.1, 'O': 4.0}",22.0,22.0,0.0,1,La1.8 Nd0.1 Ba0.1 Cu1 O4
2906,[2366],La1.875Ba0.1Sr0.025Cu1O4,La1.875Ba0.1Sr0.025Cu1O4,"{'Ba': 0.1, 'Cu': 1.0, 'La': 1.875, 'O': 4.0, 'Sr': 0.025}",6.0,6.0,0.0,1,La1.875 Ba0.1 Sr0.025 Cu1 O4
2907,"[3, 435, 2907, 7043, 9703, 20705]",Ba0.1La1.9Cu1O4-Y,Ba0.1La1.9Cu1O4,"{'Ba': 0.1, 'Cu': 1.0, 'La': 1.9, 'O': 4.0}",38.0,28.1666666667,5.6458440959,6,Ba0.1 La1.9 Cu1 O4
2908,[70],Y0.9Ba0.1Cu1O4,Y0.9Ba0.1Cu1O4,"{'Ba': 0.1, 'Cu': 1.0, 'O': 4.0, 'Y': 0.9}",81.0,81.0,0.0,1,Y0.9 Ba0.1 Cu1 O4
2909,[21574],Ba0.1Fe0.9Se0.85,Ba0.1Fe0.9Se0.85,"{'Ba': 0.1, 'Fe': 0.9, 'Se': 0.85}",10.6,10.6,0.0,1,Ba0.1 Fe0.9 Se0.85
2910,[14503],Ba0.1Sr0.9Ti1O3,Ba0.1Sr0.9Ti1O3,"{'Ba': 0.1, 'O': 3.0, 'Sr': 0.9, 'Ti': 1.0}",0.1,0.1,0.0,1,Ba0.1 Sr0.9 Ti1 O3
2911,[13011],Ba0.1Pb3Sr0.9,Ba0.1Pb3Sr0.9,"{'Ba': 0.1, 'Pb': 3.0, 'Sr': 0.9}",1.75,1.75,0.0,1,Ba0.1 Pb3 Sr0.9
2912,[1796],La1.898Ba0.102Cu1O4,La1.898Ba0.102Cu1O4,"{'Ba': 0.10200000000000001, 'Cu': 1.0, 'La': 1.8980000000000001, 'O': 4.0}",29.0,29.0,0.0,1,La1.898 Ba0.102 Cu1 O4
2913,[6946],La1.897Ba0.103Cu1O4,La1.897Ba0.103Cu1O4,"{'Ba': 0.10300000000000001, 'Cu': 1.0, 'La': 1.897, 'O': 4.0}",14.5,14.5,0.0,1,La1.897 Ba0.103 Cu1 O4
2914,[6954],La1.895Ba0.105Cu1O4,La1.895Ba0.105Cu1O4,"{'Ba': 0.105, 'Cu': 1.0, 'La': 1.895, 'O': 4.0}",33.1,33.1,0.0,1,La1.895 Ba0.105 Cu1 O4
2915,"[2267, 6947]",La1.892Ba0.108Cu1O4,La1.892Ba0.108Cu1O4,"{'Ba': 0.108, 'Cu': 1.0, 'La': 1.892, 'O': 4.0}",22.1,16.4,5.7,2,La1.892 Ba0.108 Cu1 O4
2916,[7063],La1.69Nd0.2Ba0.11Cu1O4,La1.69Nd0.2Ba0.11Cu1O4,"{'Ba': 0.11, 'Cu': 1.0, 'La': 1.69, 'Nd': 0.2, 'O': 4.0}",8.2,8.2,0.0,1,La1.69 Nd0.2 Ba0.11 Cu1 O4
2917,[7057],La1.79Nd0.1Ba0.11Cu1O4,La1.79Nd0.1Ba0.11Cu1O4,"{'Ba': 0.11, 'Cu': 1.0, 'La': 1.79, 'Nd': 0.1, 'O': 4.0}",13.0,13.0,0.0,1,La1.79 Nd0.1 Ba0.11 Cu1 O4
2918,"[6948, 6955, 6977, 7044, 7475, 9704, 20706]",La1.89Ba0.11Cu1O4,La1.89Ba0.11Cu1O4,"{'Ba': 0.11, 'Cu': 1.0, 'La': 1.8900000000000001, 'O': 4.0}",38.0,21.9,10.8092552935,7,La1.89 Ba0.11 Cu1 O4
2919,"[6340, 9885]",La1.85Sr0.038Ba0.112Cu1O4,La1.85Sr0.038Ba0.112Cu1O4,"{'Ba': 0.112, 'Cu': 1.0, 'La': 1.85, 'O': 4.0, 'Sr': 0.038}",32.0,32.0,0.0,2,La1.85 Sr0.038 Ba0.112 Cu1 O4
2920,[9886],La1.842Nd0.008Sr0.036Ba0.114Cu1O3.98,La1.842Nd0.008Sr0.036Ba0.114Cu1O3.98,"{'Ba': 0.114, 'Cu': 1.0, 'La': 1.842, 'Nd': 0.008, 'O': 3.98, 'Sr': 0.036000000000000004}",31.7,31.7,0.0,1,La1.842 Nd0.008 Sr0.036 Ba0.114 Cu1 O3.98
2921,[6341],La1.842Nd0.008Sr0.036Ba0.114Cu1O4,La1.842Nd0.008Sr0.036Ba0.114Cu1O4,"{'Ba': 0.114, 'Cu': 1.0, 'La': 1.842, 'Nd': 0.008, 'O': 4.0, 'Sr': 0.036000000000000004}",31.7,31.7,0.0,1,La1.842 Nd0.008 Sr0.036 Ba0.114 Cu1 O4
2922,[7045],La1.885Ba0.115Cu1O4,La1.885Ba0.115Cu1O4,"{'Ba': 0.115, 'Cu': 1.0, 'La': 1.885, 'O': 4.0}",13.9,13.9,0.0,1,La1.885 Ba0.115 Cu1 O4
2923,[6956],La1.884Ba0.116Cu1O4,La1.884Ba0.116Cu1O4,"{'Ba': 0.116, 'Cu': 1.0, 'La': 1.884, 'O': 4.0}",21.8,21.8,0.0,1,La1.884 Ba0.116 Cu1 O4
2924,[2280],La1.882Ba0.118Cu0.99Ni0.01O4,La1.882Ba0.118Cu0.99Ni0.01O4,"{'Ba': 0.11800000000000001, 'Cu': 0.99, 'La': 1.8820000000000001, 'Ni': 0.01, 'O': 4.0}",12.7,12.7,0.0,1,La1.882 Ba0.118 Cu0.99 Ni0.01 O4
2925,"[1797, 2340]",La1.882Ba0.118Cu1O4,La1.882Ba0.118Cu1O4,"{'Ba': 0.11800000000000001, 'Cu': 1.0, 'La': 1.8820000000000001, 'O': 4.0}",9.2,9.1,0.1,2,La1.882 Ba0.118 Cu1 O4
2926,[6957],La1.881Ba0.119Cu1O4,La1.881Ba0.119Cu1O4,"{'Ba': 0.11900000000000001, 'Cu': 1.0, 'La': 1.881, 'O': 4.0}",9.3,9.3,0.0,1,La1.881 Ba0.119 Cu1 O4
2927,[2250],La1.88Ba0.12Cu0.99Ga0.01O4,La1.88Ba0.12Cu0.99Ga0.01O4,"{'Ba': 0.12, 'Cu': 0.99, 'Ga': 0.01, 'La': 1.88, 'O': 4.0}",8.2,8.2,0.0,1,La1.88 Ba0.12 Cu0.99 Ga0.01 O4
2928,"[712, 2268, 2832, 2906, 9705]",La1.88Ba0.12Cu1O4,La1.88Ba0.12Cu1O4,"{'Ba': 0.12, 'Cu': 1.0, 'La': 1.88, 'O': 4.0}",39.0,25.1,12.084701072,5,La1.88 Ba0.12 Cu1 O4
2929,[6958],La1.877Ba0.123Cu1O4,La1.877Ba0.123Cu1O4,"{'Ba': 0.123, 'Cu': 1.0, 'La': 1.877, 'O': 4.0}",23.6,23.6,0.0,1,La1.877 Ba0.123 Cu1 O4
2930,"[6342, 9887]",La1.812Nd0.038Sr0.026Ba0.124Cu1O4,La1.812Nd0.038Sr0.026Ba0.124Cu1O4,"{'Ba': 0.124, 'Cu': 1.0, 'La': 1.812, 'Nd': 0.038, 'O': 4.0, 'Sr': 0.026000000000000002}",31.1,31.1,0.0,2,La1.812 Nd0.038 Sr0.026 Ba0.124 Cu1 O4
2931,[7069],La1.475Nd0.4Ba0.125Cu1O4,La1.475Nd0.4Ba0.125Cu1O4,"{'Ba': 0.125, 'Cu': 1.0, 'La': 1.475, 'Nd': 0.4, 'O': 4.0}",7.5,7.5,0.0,1,La1.475 Nd0.4 Ba0.125 Cu1 O4
2932,"[2365, 3532, 3553, 3554, 7046, 9706, 9707, 20518, 20707, 21450]",La1.875Ba0.125Cu1O4,La1.875Ba0.125Cu1O4,"{'Ba': 0.125, 'Cu': 1.0, 'La': 1.875, 'O': 4.0}",40.0,15.77,13.5506494309,10,La1.875 Ba0.125 Cu1 O4
2933,[2251],La1.87Ba0.13Cu0.99Ga0.01O4,La1.87Ba0.13Cu0.99Ga0.01O4,"{'Ba': 0.13, 'Cu': 0.99, 'Ga': 0.01, 'La': 1.87, 'O': 4.0}",4.5,4.5,0.0,1,La1.87 Ba0.13 Cu0.99 Ga0.01 O4
2934,"[1247, 2269, 9708, 20391]",La1.87Ba0.13Cu1O4,La1.87Ba0.13Cu1O4,"{'Ba': 0.13, 'Cu': 1.0, 'La': 1.87, 'O': 4.0}",41.0,15.21,15.0219605911,4,La1.87 Ba0.13 Cu1 O4
2935,"[13013, 14904]",Ba0.13O3W1,Ba0.13O3W1,"{'Ba': 0.13, 'O': 3.0, 'W': 1.0}",1.9,1.9,0.0,2,Ba0.13 O3 W1
2936,[14520],Ba0.13W1P3,Ba0.13W1P3,"{'Ba': 0.13, 'P': 3.0, 'W': 1.0}",1.9,1.9,0.0,1,Ba0.13 W1 P3
2937,[2281],La1.869Ba0.131Cu0.99Ni0.01O4,La1.869Ba0.131Cu0.99Ni0.01O4,"{'Ba': 0.131, 'Cu': 0.99, 'La': 1.869, 'Ni': 0.01, 'O': 4.0}",7.0,7.0,0.0,1,La1.869 Ba0.131 Cu0.99 Ni0.01 O4
2938,[7047],La1.865Ba0.135Cu1O4,La1.865Ba0.135Cu1O4,"{'Ba': 0.135, 'Cu': 1.0, 'La': 1.865, 'O': 4.0}",5.98,5.98,0.0,1,La1.865 Ba0.135 Cu1 O4
2939,[6343],La1.776Nd0.074Sr0.014Ba0.136Cu1O4,La1.776Nd0.074Sr0.014Ba0.136Cu1O4,"{'Ba': 0.136, 'Cu': 1.0, 'La': 1.776, 'Nd': 0.074, 'O': 4.0, 'Sr': 0.014}",30.0,30.0,0.0,1,La1.776 Nd0.074 Sr0.014 Ba0.136 Cu1 O4
2940,[9888],La1.776Nd0.074Sr0.014Ba0.136Cu1O4.03,La1.776Nd0.074Sr0.014Ba0.136Cu1O4.03,"{'Ba': 0.136, 'Cu': 1.0, 'La': 1.776, 'Nd': 0.074, 'O': 4.03, 'Sr': 0.014}",30.0,30.0,0.0,1,La1.776 Nd0.074 Sr0.014 Ba0.136 Cu1 O4.03
2941,[2282],La1.86Ba0.14Cu0.99Ni0.01O4,La1.86Ba0.14Cu0.99Ni0.01O4,"{'Ba': 0.14, 'Cu': 0.99, 'La': 1.8599999999999999, 'Ni': 0.01, 'O': 4.0}",11.0,11.0,0.0,1,La1.86 Ba0.14 Cu0.99 Ni0.01 O4
2942,"[2270, 6949, 6959, 6978, 7048, 9709]",La1.86Ba0.14Cu1O4,La1.86Ba0.14Cu1O4,"{'Ba': 0.14, 'Cu': 1.0, 'La': 1.8599999999999999, 'O': 4.0}",42.0,19.2433333333,12.5187614758,6,La1.86 Ba0.14 Cu1 O4
2943,"[13012, 14916]",Ba0.14O3W1,Ba0.14O3W1,"{'Ba': 0.14, 'O': 3.0, 'W': 1.0}",2.2,1.725,0.47500000000000003,2,Ba0.14 O3 W1
2944,"[1798, 2341]",La1.858Ba0.142Cu1O4,La1.858Ba0.142Cu1O4,"{'Ba': 0.14200000000000002, 'Cu': 1.0, 'La': 1.858, 'O': 4.0}",29.0,28.95,0.05,2,La1.858 Ba0.142 Cu1 O4
2945,"[2911, 3533, 7049]",La1.855Ba0.145Cu1O4,La1.855Ba0.145Cu1O4,"{'Ba': 0.145, 'Cu': 1.0, 'La': 1.855, 'O': 4.0}",30.3,24.4333333333,8.0855151695,3,La1.855 Ba0.145 Cu1 O4
2946,[6344],La1.736Nd0.116Ba0.15Cu1O4,La1.736Nd0.116Ba0.15Cu1O4,"{'Ba': 0.15, 'Cu': 1.0, 'La': 1.736, 'Nd': 0.116, 'O': 4.0}",29.0,29.0,0.0,1,La1.736 Nd0.116 Ba0.15 Cu1 O4
2947,[9889],La1.736Nd0.116Ba0.15Cu1O4.03,La1.736Nd0.116Ba0.15Cu1O4.03,"{'Ba': 0.15, 'Cu': 1.0, 'La': 1.736, 'Nd': 0.116, 'O': 4.03}",29.0,29.0,0.0,1,La1.736 Nd0.116 Ba0.15 Cu1 O4.03
2948,[7058],La1.75Nd0.1Ba0.15Cu1O4,La1.75Nd0.1Ba0.15Cu1O4,"{'Ba': 0.15, 'Cu': 1.0, 'La': 1.75, 'Nd': 0.1, 'O': 4.0}",12.0,12.0,0.0,1,La1.75 Nd0.1 Ba0.15 Cu1 O4
2949,"[4, 18, 19, 71, 1061, 1285, 9710, 9711, 20708]",Ba0.15La1.85Cu1O4-Y,Ba0.15La1.85Cu1O4,"{'Ba': 0.15, 'Cu': 1.0, 'La': 1.85, 'O': 4.0}",43.0,27.4555555556,8.6187278142,9,Ba0.15 La1.85 Cu1 O4
2950,[7050],La1.845Ba0.155Cu1O4,La1.845Ba0.155Cu1O4,"{'Ba': 0.155, 'Cu': 1.0, 'La': 1.845, 'O': 4.0}",26.0,26.0,0.0,1,La1.845 Ba0.155 Cu1 O4
2951,[2271],La1.843Ba0.157Cu1O4,La1.843Ba0.157Cu1O4,"{'Ba': 0.157, 'Cu': 1.0, 'La': 1.843, 'O': 4.0}",25.3,25.3,0.0,1,La1.843 Ba0.157 Cu1 O4
2952,[2283],La1.842Ba0.158Cu0.99Ni0.01O4,La1.842Ba0.158Cu0.99Ni0.01O4,"{'Ba': 0.158, 'Cu': 0.99, 'La': 1.842, 'Ni': 0.01, 'O': 4.0}",19.0,19.0,0.0,1,La1.842 Ba0.158 Cu0.99 Ni0.01 O4
2953,[2252],La1.84Ba0.16Cu0.99Ga0.01O4,La1.84Ba0.16Cu0.99Ga0.01O4,"{'Ba': 0.16, 'Cu': 0.99, 'Ga': 0.01, 'La': 1.8399999999999999, 'O': 4.0}",8.3,8.3,0.0,1,La1.84 Ba0.16 Cu0.99 Ga0.01 O4
2954,[2255],La1.84Ba0.16Cu0.99Zn0.01O4,La1.84Ba0.16Cu0.99Zn0.01O4,"{'Ba': 0.16, 'Cu': 0.99, 'La': 1.8399999999999999, 'O': 4.0, 'Zn': 0.01}",12.4,12.4,0.0,1,La1.84 Ba0.16 Cu0.99 Zn0.01 O4
2955,[7064],La1.64Nd0.2Ba0.16Cu1O4,La1.64Nd0.2Ba0.16Cu1O4,"{'Ba': 0.16, 'Cu': 1.0, 'La': 1.6400000000000001, 'Nd': 0.2, 'O': 4.0}",12.0,12.0,0.0,1,La1.64 Nd0.2 Ba0.16 Cu1 O4
2956,[7059],La1.74Nd0.1Ba0.16Cu1O4,La1.74Nd0.1Ba0.16Cu1O4,"{'Ba': 0.16, 'Cu': 1.0, 'La': 1.74, 'Nd': 0.1, 'O': 4.0}",16.9,16.9,0.0,1,La1.74 Nd0.1 Ba0.16 Cu1 O4
2957,"[1248, 3534, 6950, 6960, 7051]",La1.84Ba0.16Cu1O4,La1.84Ba0.16Cu1O4,"{'Ba': 0.16, 'Cu': 1.0, 'La': 1.8399999999999999, 'O': 4.0}",29.8,28.2,1.412798641,5,La1.84 Ba0.16 Cu1 O4
2958,[21982],Sr1.84Ba0.16Cu1O3.4,Sr1.84Ba0.16Cu1O3.4,"{'Ba': 0.16, 'Cu': 1.0, 'O': 3.4, 'Sr': 1.8399999999999999}",75.0,75.0,0.0,1,Sr1.84 Ba0.16 Cu1 O3.4
2959,[7052],La1.83Ba0.17Cu1O4,La1.83Ba0.17Cu1O4,"{'Ba': 0.17, 'Cu': 1.0, 'La': 1.83, 'O': 4.0}",26.9,26.9,0.0,1,La1.83 Ba0.17 Cu1 O4
2960,"[2910, 20392, 20709]",La1.825Ba0.175Cu1O4,La1.825Ba0.175Cu1O4,"{'Ba': 0.17500000000000002, 'Cu': 1.0, 'La': 1.8250000000000002, 'O': 4.0}",28.3,26.2,1.5513435038,3,La1.825 Ba0.175 Cu1 O4
2961,[2272],La1.823Ba0.177Cu1O4,La1.823Ba0.177Cu1O4,"{'Ba': 0.177, 'Cu': 1.0, 'La': 1.823, 'O': 4.0}",25.5,25.5,0.0,1,La1.823 Ba0.177 Cu1 O4
2962,[2284],La1.822Ba0.178Cu0.99Ni0.01O4,La1.822Ba0.178Cu0.99Ni0.01O4,"{'Ba': 0.178, 'Cu': 0.99, 'La': 1.822, 'Ni': 0.01, 'O': 4.0}",18.2,18.2,0.0,1,La1.822 Ba0.178 Cu0.99 Ni0.01 O4
2963,[2253],La1.82Ba0.18Cu0.99Ga0.01O4,La1.82Ba0.18Cu0.99Ga0.01O4,"{'Ba': 0.18, 'Cu': 0.99, 'Ga': 0.01, 'La': 1.82, 'O': 4.0}",8.6,8.6,0.0,1,La1.82 Ba0.18 Cu0.99 Ga0.01 O4
2964,[2256],La1.82Ba0.18Cu0.99Zn0.01O4,La1.82Ba0.18Cu0.99Zn0.01O4,"{'Ba': 0.18, 'Cu': 0.99, 'La': 1.82, 'O': 4.0, 'Zn': 0.01}",13.9,13.9,0.0,1,La1.82 Ba0.18 Cu0.99 Zn0.01 O4
2965,[7065],La1.62Nd0.2Ba0.18Cu1O4,La1.62Nd0.2Ba0.18Cu1O4,"{'Ba': 0.18, 'Cu': 1.0, 'La': 1.62, 'Nd': 0.2, 'O': 4.0}",14.9,14.9,0.0,1,La1.62 Nd0.2 Ba0.18 Cu1 O4
2966,[7060],La1.72Nd0.1Ba0.18Cu1O4,La1.72Nd0.1Ba0.18Cu1O4,"{'Ba': 0.18, 'Cu': 1.0, 'La': 1.72, 'Nd': 0.1, 'O': 4.0}",19.8,19.8,0.0,1,La1.72 Nd0.1 Ba0.18 Cu1 O4
2967,"[6951, 7053]",La1.82Ba0.18Cu1O4,La1.82Ba0.18Cu1O4,"{'Ba': 0.18, 'Cu': 1.0, 'La': 1.82, 'O': 4.0}",24.2,23.1,1.1,2,La1.82 Ba0.18 Cu1 O4
2968,[10757],Ba0.19K0.81Bi1O3,Ba0.19K0.81Bi1O3,"{'Ba': 0.19, 'Bi': 1.0, 'K': 0.81, 'O': 3.0}",8.4,8.4,0.0,1,Ba0.19 K0.81 Bi1 O3
2969,[2273],La1.801Ba0.199Cu1O4,La1.801Ba0.199Cu1O4,"{'Ba': 0.199, 'Cu': 1.0, 'La': 1.8010000000000002, 'O': 4.0}",23.5,23.5,0.0,1,La1.801 Ba0.199 Cu1 O4
2970,[3371],Tl0.6Pb0.2Bi0.2Sr1.8Ba0.2Ca2Cu3O9,Tl0.6Pb0.2Bi0.2Sr1.8Ba0.2Ca2Cu3O9,"{'Ba': 0.2, 'Bi': 0.2, 'Ca': 2.0, 'Cu': 3.0, 'O': 9.0, 'Pb': 0.2, 'Sr': 1.8, 'Tl': 0.6000000000000001}",122.0,122.0,0.0,1,Tl0.6 Pb0.2 Bi0.2 Sr1.8 Ba0.2 Ca2 Cu3 O9
2971,[2622],Pb0.5Sr1.8Ba0.2Y0.85Ca0.15Cu2.5O6.98,Pb0.5Sr1.8Ba0.2Y0.85Ca0.15Cu2.5O6.98,"{'Ba': 0.2, 'Ca': 0.15, 'Cu': 2.5, 'O': 6.98, 'Pb': 0.5, 'Sr': 1.8, 'Y': 0.85}",25.0,25.0,0.0,1,Pb0.5 Sr1.8 Ba0.2 Y0.85 Ca0.15 Cu2.5 O6.98
2972,"[4080, 4083, 4287, 4292]",Y0.6Ca0.4Sr1.8Ba0.2Cu2Ga1O7,Y0.6Ca0.4Sr1.8Ba0.2Cu2Ga1O7,"{'Ba': 0.2, 'Ca': 0.4, 'Cu': 2.0, 'Ga': 1.0, 'O': 7.0, 'Sr': 1.8, 'Y': 0.6000000000000001}",68.0,50.75,9.9592921435,4,Y0.6 Ca0.4 Sr1.8 Ba0.2 Cu2 Ga1 O7
2973,[7661],Tl1Ba0.2Ca0.8La1Cu1O5,Tl1Ba0.2Ca0.8La1Cu1O5,"{'Ba': 0.2, 'Ca': 0.8, 'Cu': 1.0, 'La': 1.0, 'O': 5.0, 'Tl': 1.0}",13.0,13.0,0.0,1,Tl1 Ba0.2 Ca0.8 La1 Cu1 O5
2974,[7066],La1.6Nd0.2Ba0.2Cu1O4,La1.6Nd0.2Ba0.2Cu1O4,"{'Ba': 0.2, 'Cu': 1.0, 'La': 1.6, 'Nd': 0.2, 'O': 4.0}",11.0,11.0,0.0,1,La1.6 Nd0.2 Ba0.2 Cu1 O4
2975,"[1, 925, 935, 1054, 1131, 1278, 1799, 2343, 2909, 3535, 7054, 9712, 20393, 20710]",Ba0.2La1.8Cu1O4-Y,Ba0.2La1.8Cu1O4,"{'Ba': 0.2, 'Cu': 1.0, 'La': 1.8, 'O': 4.0}",38.0,25.2271428571,7.2698107939,14,Ba0.2 La1.8 Cu1 O4
2976,[69],Lu1.8Ba0.2Cu1O4,Lu1.8Ba0.2Cu1O4,"{'Ba': 0.2, 'Cu': 1.0, 'Lu': 1.8, 'O': 4.0}",71.9,71.9,0.0,1,Lu1.8 Ba0.2 Cu1 O4
2977,[8003],Y0.6Pr0.4Ba0.2Sr1.8Cu3O7-d,Y0.6Pr0.4Ba0.2Sr1.8Cu3O7,"{'Ba': 0.2, 'Cu': 3.0, 'O': 7.0, 'Pr': 0.4, 'Sr': 1.8, 'Y': 0.6000000000000001}",44.0,44.0,0.0,1,Y0.6 Pr0.4 Ba0.2 Sr1.8 Cu3 O7
2978,[5734],Gd1Sr1.8Ba0.2Cu4O8,Gd1Sr1.8Ba0.2Cu4O8,"{'Ba': 0.2, 'Cu': 4.0, 'Gd': 1.0, 'O': 8.0, 'Sr': 1.8}",73.1,73.1,0.0,1,Gd1 Sr1.8 Ba0.2 Cu4 O8
2979,[11566],Ba0.2Mo1S2,Ba0.2Mo1S2,"{'Ba': 0.2, 'Mo': 1.0, 'S': 2.0}",5.7,5.7,0.0,1,Ba0.2 Mo1 S2
2980,[25165],Sr0.8Ba0.2Ni2P2,Sr0.8Ba0.2Ni2P2,"{'Ba': 0.2, 'Ni': 2.0, 'P': 2.0, 'Sr': 0.8}",2.87,2.87,0.0,1,Sr0.8 Ba0.2 Ni2 P2
2981,[2274],La1.782Ba0.218Cu1O4,La1.782Ba0.218Cu1O4,"{'Ba': 0.218, 'Cu': 1.0, 'La': 1.782, 'O': 4.0}",21.6,21.6,0.0,1,La1.782 Ba0.218 Cu1 O4
2982,"[1249, 6952]",La1.78Ba0.22Cu1O4,La1.78Ba0.22Cu1O4,"{'Ba': 0.22, 'Cu': 1.0, 'La': 1.78, 'O': 4.0}",32.0,18.7,13.3,2,La1.78 Ba0.22 Cu1 O4
2983,"[1800, 2344]",La1.76Ba0.24Cu1O4,La1.76Ba0.24Cu1O4,"{'Ba': 0.24, 'Cu': 1.0, 'La': 1.76, 'O': 4.0}",14.0,14.0,0.0,2,La1.76 Ba0.24 Cu1 O4
2984,[2275],La1.751Ba0.249Cu1O4,La1.751Ba0.249Cu1O4,"{'Ba': 0.249, 'Cu': 1.0, 'La': 1.751, 'O': 4.0}",13.7,13.7,0.0,1,La1.751 Ba0.249 Cu1 O4
2985,[16404],K2.75Ba0.25C60,K2.75Ba0.25C60,"{'Ba': 0.25, 'C': 60.0, 'K': 2.75}",15.0,15.0,0.0,1,K2.75 Ba0.25 C60
2986,[4141],Sr1.75Ba0.25Cu1F2O2,Sr1.75Ba0.25Cu1F2O2,"{'Ba': 0.25, 'Cu': 1.0, 'F': 2.0, 'O': 2.0, 'Sr': 1.75}",58.0,58.0,0.0,1,Sr1.75 Ba0.25 Cu1 F2 O2
2987,[9713],La1.75Ba0.25Cu1O4+Z,La1.75Ba0.25Cu1O4,"{'Ba': 0.25, 'Cu': 1.0, 'La': 1.75, 'O': 4.0}",29.0,29.0,0.0,1,La1.75 Ba0.25 Cu1 O4
2988,[7407],Ba0.25Nb1O2-z,Ba0.25Nb1O2,"{'Ba': 0.25, 'Nb': 1.0, 'O': 2.0}",18.05,18.05,0.0,1,Ba0.25 Nb1 O2
2989,"[4081, 4288, 4293]",Y0.6Ca0.4Sr1.7Ba0.3Cu2Ga1O7,Y0.6Ca0.4Sr1.7Ba0.3Cu2Ga1O7,"{'Ba': 0.30000000000000004, 'Ca': 0.4, 'Cu': 2.0, 'Ga': 1.0, 'O': 7.0, 'Sr': 1.7000000000000002, 'Y': 0.6000000000000001}",50.0,50.0,0.0,3,Y0.6 Ca0.4 Sr1.7 Ba0.3 Cu2 Ga1 O7
2990,[12],Ba0.3La1.7Hg0.3Cu0.7O4-Y,Ba0.3La1.7Hg0.3Cu0.7O4,"{'Ba': 0.30000000000000004, 'Cu': 0.7000000000000001, 'Hg': 0.30000000000000004, 'La': 1.7000000000000002, 'O': 4.0}",26.0,26.0,0.0,1,Ba0.3 La1.7 Hg0.3 Cu0.7 O4
2991,"[62, 63]",Ba0.3La1.7Hg0.15Cu0.85O4-Y,Ba0.3La1.7Hg0.15Cu0.85O4,"{'Ba': 0.30000000000000004, 'Cu': 0.85, 'Hg': 0.15, 'La': 1.7000000000000002, 'O': 4.0}",28.0,28.0,0.0,2,Ba0.3 La1.7 Hg0.15 Cu0.85 O4
2992,[2257],La1.7Ba0.3Cu0.99Zn0.01O4,La1.7Ba0.3Cu0.99Zn0.01O4,"{'Ba': 0.30000000000000004, 'Cu': 0.99, 'La': 1.7000000000000002, 'O': 4.0, 'Zn': 0.01}",5.0,5.0,0.0,1,La1.7 Ba0.3 Cu0.99 Zn0.01 O4
2993,[7655],Tl1Ba0.3Sr0.7La1Cu1O5,Tl1Ba0.3Sr0.7La1Cu1O5,"{'Ba': 0.30000000000000004, 'Cu': 1.0, 'La': 1.0, 'O': 5.0, 'Sr': 0.7000000000000001, 'Tl': 1.0}",30.0,30.0,0.0,1,Tl1 Ba0.3 Sr0.7 La1 Cu1 O5
2994,[7793],Tl1Ba0.3Sr0.7La1Cu1O5.11,Tl1Ba0.3Sr0.7La1Cu1O5.11,"{'Ba': 0.30000000000000004, 'Cu': 1.0, 'La': 1.0, 'O': 5.11, 'Sr': 0.7000000000000001, 'Tl': 1.0}",25.0,25.0,0.0,1,Tl1 Ba0.3 Sr0.7 La1 Cu1 O5.11
2995,"[5, 2276, 9714]",Ba0.3La1.7Cu1O4-Y,Ba0.3La1.7Cu1O4,"{'Ba': 0.30000000000000004, 'Cu': 1.0, 'La': 1.7000000000000002, 'O': 4.0}",23.0,16.2333333333,5.4322084725,3,Ba0.3 La1.7 Cu1 O4
2996,[21983],Sr1.68Ba0.32Cu1O3.4,Sr1.68Ba0.32Cu1O3.4,"{'Ba': 0.32, 'Cu': 1.0, 'O': 3.4, 'Sr': 1.6800000000000002}",88.0,88.0,0.0,1,Sr1.68 Ba0.32 Cu1 O3.4
2997,[10512],Ba0.33K0.67Bi1O3,Ba0.33K0.67Bi1O3,"{'Ba': 0.33, 'Bi': 1.0, 'K': 0.67, 'O': 3.0}",0.77,0.77,0.0,1,Ba0.33 K0.67 Bi1 O3
2998,[24296],Ba0.33Hf1N1Cl1,Ba0.33Hf1N1Cl1,"{'Ba': 0.33, 'Cl': 1.0, 'Hf': 1.0, 'N': 1.0}",20.2,20.2,0.0,1,Ba0.33 Hf1 N1 Cl1
2999,"[10509, 10756]",Ba0.34K0.66Bi1O3,Ba0.34K0.66Bi1O3,"{'Ba': 0.34, 'Bi': 1.0, 'K': 0.66, 'O': 3.0}",7.0,7.0,0.0,2,Ba0.34 K0.66 Bi1 O3
3000,[10513],Ba0.35K0.65Bi1O3,Ba0.35K0.65Bi1O3,"{'Ba': 0.35000000000000003, 'Bi': 1.0, 'K': 0.65, 'O': 3.0}",1.88,1.88,0.0,1,Ba0.35 K0.65 Bi1 O3
3001,[2277],La1.65Ba0.35Cu1O4,La1.65Ba0.35Cu1O4,"{'Ba': 0.35000000000000003, 'Cu': 1.0, 'La': 1.65, 'O': 4.0}",4.2,4.2,0.0,1,La1.65 Ba0.35 Cu1 O4
3002,[10530],Ba0.37K0.63Bi1O2.952,Ba0.37K0.63Bi1O2.952,"{'Ba': 0.37, 'Bi': 1.0, 'K': 0.63, 'O': 2.952}",8.71,8.71,0.0,1,Ba0.37 K0.63 Bi1 O2.952
3003,[4440],Tl0.8Bi0.2Sr1.6Ba0.4Ca2Cu3O9-z,Tl0.8Bi0.2Sr1.6Ba0.4Ca2Cu3O9,"{'Ba': 0.4, 'Bi': 0.2, 'Ca': 2.0, 'Cu': 3.0, 'O': 9.0, 'Sr': 1.6, 'Tl': 0.8}",113.0,113.0,0.0,1,Tl0.8 Bi0.2 Sr1.6 Ba0.4 Ca2 Cu3 O9
3004,[6140],Tl0.78Bi0.22Sr1.6Ba0.4Ca2Cu3O9-Z,Tl0.78Bi0.22Sr1.6Ba0.4Ca2Cu3O9,"{'Ba': 0.4, 'Bi': 0.22, 'Ca': 2.0, 'Cu': 3.0, 'O': 9.0, 'Sr': 1.6, 'Tl': 0.78}",108.0,108.0,0.0,1,Tl0.78 Bi0.22 Sr1.6 Ba0.4 Ca2 Cu3 O9
3005,[10514],Ba0.4K0.6Bi1O3,Ba0.4K0.6Bi1O3,"{'Ba': 0.4, 'Bi': 1.0, 'K': 0.6000000000000001, 'O': 3.0}",7.2,7.2,0.0,1,Ba0.4 K0.6 Bi1 O3
3006,[4092],Y0.8Ca0.2Sr1.6Ba0.4Cu2.7Ga0.3O7,Y0.8Ca0.2Sr1.6Ba0.4Cu2.7Ga0.3O7,"{'Ba': 0.4, 'Ca': 0.2, 'Cu': 2.7, 'Ga': 0.30000000000000004, 'O': 7.0, 'Sr': 1.6, 'Y': 0.8}",53.9,53.9,0.0,1,Y0.8 Ca0.2 Sr1.6 Ba0.4 Cu2.7 Ga0.3 O7
3007,"[4082, 4289, 4294]",Y0.6Ca0.4Sr1.6Ba0.4Cu2Ga1O7,Y0.6Ca0.4Sr1.6Ba0.4Cu2Ga1O7,"{'Ba': 0.4, 'Ca': 0.4, 'Cu': 2.0, 'Ga': 1.0, 'O': 7.0, 'Sr': 1.6, 'Y': 0.6000000000000001}",56.0,56.0,0.0,3,Y0.6 Ca0.4 Sr1.6 Ba0.4 Cu2 Ga1 O7
3008,[4646],Pb0.5Cd0.5Sr1.6Ba0.4Ca0.5Y0.5Cu2O7,Pb0.5Cd0.5Sr1.6Ba0.4Ca0.5Y0.5Cu2O7,"{'Ba': 0.4, 'Ca': 0.5, 'Cd': 0.5, 'Cu': 2.0, 'O': 7.0, 'Pb': 0.5, 'Sr': 1.6, 'Y': 0.5}",36.0,36.0,0.0,1,Pb0.5 Cd0.5 Sr1.6 Ba0.4 Ca0.5 Y0.5 Cu2 O7
3009,[7660],Tl1Ba0.4Ca0.6La1Cu1O5,Tl1Ba0.4Ca0.6La1Cu1O5,"{'Ba': 0.4, 'Ca': 0.6000000000000001, 'Cu': 1.0, 'La': 1.0, 'O': 5.0, 'Tl': 1.0}",16.0,16.0,0.0,1,Tl1 Ba0.4 Ca0.6 La1 Cu1 O5
3010,[4142],Sr1.6Ba0.4Cu1F2O2,Sr1.6Ba0.4Cu1F2O2,"{'Ba': 0.4, 'Cu': 1.0, 'F': 2.0, 'O': 2.0, 'Sr': 1.6}",60.0,60.0,0.0,1,Sr1.6 Ba0.4 Cu1 F2 O2
3011,[2278],La1.6Ba0.4Cu1O4,La1.6Ba0.4Cu1O4,"{'Ba': 0.4, 'Cu': 1.0, 'La': 1.6, 'O': 4.0}",4.2,4.2,0.0,1,La1.6 Ba0.4 Cu1 O4
3012,[7259],Ru1Sr1.6Ba0.4Gd1Cu2O8,Ru1Sr1.6Ba0.4Gd1Cu2O8,"{'Ba': 0.4, 'Cu': 2.0, 'Gd': 1.0, 'O': 8.0, 'Ru': 1.0, 'Sr': 1.6}",39.0,39.0,0.0,1,Ru1 Sr1.6 Ba0.4 Gd1 Cu2 O8
3013,[8002],Y0.6Pr0.4Ba0.4Sr1.6Cu3O7-d,Y0.6Pr0.4Ba0.4Sr1.6Cu3O7,"{'Ba': 0.4, 'Cu': 3.0, 'O': 7.0, 'Pr': 0.4, 'Sr': 1.6, 'Y': 0.6000000000000001}",50.0,50.0,0.0,1,Y0.6 Pr0.4 Ba0.4 Sr1.6 Cu3 O7
3014,[22720],Ba0.4K0.6O3,Ba0.4K0.6O3,"{'Ba': 0.4, 'K': 0.6000000000000001, 'O': 3.0}",7.0,7.0,0.0,1,Ba0.4 K0.6 O3
3015,[25166],Sr0.6Ba0.4Ni2P2,Sr0.6Ba0.4Ni2P2,"{'Ba': 0.4, 'Ni': 2.0, 'P': 2.0, 'Sr': 0.6000000000000001}",2.84,2.84,0.0,1,Sr0.6 Ba0.4 Ni2 P2
3016,"[10508, 10755]",Ba0.445K0.555Bi1O3,Ba0.445K0.555Bi1O3,"{'Ba': 0.445, 'Bi': 1.0, 'K': 0.555, 'O': 3.0}",17.0,15.5,1.5,2,Ba0.445 K0.555 Bi1 O3
3017,[3275],Ba0.45K0.55Bi1O2.83,Ba0.45K0.55Bi1O2.83,"{'Ba': 0.45, 'Bi': 1.0, 'K': 0.55, 'O': 2.83}",18.95,18.95,0.0,1,Ba0.45 K0.55 Bi1 O2.83
3018,[10515],Ba0.45K0.55Bi1O3,Ba0.45K0.55Bi1O3,"{'Ba': 0.45, 'Bi': 1.0, 'K': 0.55, 'O': 3.0}",12.7,12.7,0.0,1,Ba0.45 K0.55 Bi1 O3
3019,[10529],Ba0.46K0.56Bi1O2.965,Ba0.46K0.56Bi1O2.965,"{'Ba': 0.46, 'Bi': 1.0, 'K': 0.56, 'O': 2.965}",14.8,14.8,0.0,1,Ba0.46 K0.56 Bi1 O2.965
3020,[10298],Ba0.47K0.53Bi0.965Pr0.035O3,Ba0.47K0.53Bi0.965Pr0.035O3,"{'Ba': 0.47000000000000003, 'Bi': 0.965, 'K': 0.53, 'O': 3.0, 'Pr': 0.035}",2.9699999999999998,2.9699999999999998,0.0,1,Ba0.47 K0.53 Bi0.965 Pr0.035 O3
3021,[10297],Ba0.47K0.53Bi0.972Pr0.028O3,Ba0.47K0.53Bi0.972Pr0.028O3,"{'Ba': 0.47000000000000003, 'Bi': 0.972, 'K': 0.53, 'O': 3.0, 'Pr': 0.028}",4.0,4.0,0.0,1,Ba0.47 K0.53 Bi0.972 Pr0.028 O3
3022,[10296],Ba0.47K0.53Bi0.979Pr0.021O3,Ba0.47K0.53Bi0.979Pr0.021O3,"{'Ba': 0.47000000000000003, 'Bi': 0.979, 'K': 0.53, 'O': 3.0, 'Pr': 0.021}",4.5,4.5,0.0,1,Ba0.47 K0.53 Bi0.979 Pr0.021 O3
3023,[10295],Ba0.47K0.53Bi0.985Pr0.015O3,Ba0.47K0.53Bi0.985Pr0.015O3,"{'Ba': 0.47000000000000003, 'Bi': 0.985, 'K': 0.53, 'O': 3.0, 'Pr': 0.015}",5.2,5.2,0.0,1,Ba0.47 K0.53 Bi0.985 Pr0.015 O3