,sc_id,supercon_formula,cleaned_formula,material_dict,highest_Tc,average_Tc,std_Tc,entry_count,composition
2019,[19777],Au0.875Sn0.125,Au0.875Sn0.125,"{'Au': 0.875, 'Sn': 0.125}",0.33,0.33,0.0,1,Au0.875 Sn0.125
2020,[19776],Au0.885Sn0.115,Au0.885Sn0.115,"{'Au': 0.885, 'Sn': 0.115}",0.21,0.21,0.0,1,Au0.885 Sn0.115
2021,[19325],Au0.9Ga0.1,Au0.9Ga0.1,"{'Au': 0.9, 'Ga': 0.1}",0.264,0.264,0.0,1,Au0.9 Ga0.1
2022,"[17236, 17243, 19335]",Au0.9In0.1,Au0.9In0.1,"{'Au': 0.9, 'In': 0.1}",0.077,0.06786666670000001,0.0064911906,3,Au0.9 In0.1
2023,"[14762, 18466]",Nb3Rh0.1Au0.9,Nb3Rh0.1Au0.9,"{'Au': 0.9, 'Nb': 3.0, 'Rh': 0.1}",10.8,10.8,0.0,2,Nb3 Rh0.1 Au0.9
2024,[17242],Au0.91In0.09,Au0.91In0.09,"{'Au': 0.91, 'In': 0.09}",0.042300000000000004,0.042300000000000004,0.0,1,Au0.91 In0.09
2025,[17235],Au0.915In0.085,Au0.915In0.085,"{'Au': 0.915, 'In': 0.085}",0.031,0.031,0.0,1,Au0.915 In0.085
2026,[19357],Au0.92Ga0.02In0.06,Au0.92Ga0.02In0.06,"{'Au': 0.92, 'Ga': 0.02, 'In': 0.06}",0.0425,0.0425,0.0,1,Au0.92 Ga0.02 In0.06
2027,[19356],Au0.92Ga0.04In0.04,Au0.92Ga0.04In0.04,"{'Au': 0.92, 'Ga': 0.04, 'In': 0.04}",0.0682,0.0682,0.0,1,Au0.92 Ga0.04 In0.04
2028,[19355],Au0.92Ga0.06In0.02,Au0.92Ga0.06In0.02,"{'Au': 0.92, 'Ga': 0.06, 'In': 0.02}",0.13,0.13,0.0,1,Au0.92 Ga0.06 In0.02
2029,[19354],Au0.92Ga0.068In0.012,Au0.92Ga0.068In0.012,"{'Au': 0.92, 'Ga': 0.068, 'In': 0.012}",0.137,0.137,0.0,1,Au0.92 Ga0.068 In0.012
2030,[19353],Au0.92Ga0.08,Au0.92Ga0.08,"{'Au': 0.92, 'Ga': 0.08}",0.168,0.168,0.0,1,Au0.92 Ga0.08
2031,"[17241, 19352]",Au0.92In0.08,Au0.92In0.08,"{'Au': 0.92, 'In': 0.08}",0.0256,0.0238,0.0018000000000000002,2,Au0.92 In0.08
2032,"[16780, 19311]",Au0.93Pd0.07Ga2,Au0.93Pd0.07Ga2,"{'Au': 0.93, 'Ga': 2.0, 'Pd': 0.07}",1.7730000000000001,1.7730000000000001,0.0,2,Au0.93 Pd0.07 Ga2
2033,[17240],Au0.93In0.07,Au0.93In0.07,"{'Au': 0.93, 'In': 0.07}",0.0164,0.0164,0.0,1,Au0.93 In0.07
2034,[17239],Au0.94In0.06,Au0.94In0.06,"{'Au': 0.9400000000000001, 'In': 0.06}",0.0111,0.0111,0.0,1,Au0.94 In0.06
2035,[19326],Au0.95Ga0.05,Au0.95Ga0.05,"{'Au': 0.9500000000000001, 'Ga': 0.05}",0.032,0.032,0.0,1,Au0.95 Ga0.05
2036,[12956],Au0.95Pd0.5Ga2,Au0.95Pd0.5Ga2,"{'Au': 0.9500000000000001, 'Ga': 2.0, 'Pd': 0.5}",1.75,1.75,0.0,1,Au0.95 Pd0.5 Ga2
2037,"[14761, 18467]",Nb3Rh0.05Au0.95,Nb3Rh0.05Au0.95,"{'Au': 0.9500000000000001, 'Nb': 3.0, 'Rh': 0.05}",11.0,11.0,0.0,2,Nb3 Rh0.05 Au0.95
2038,[19329],Au0.95Sn0.05,Au0.95Sn0.05,"{'Au': 0.9500000000000001, 'Sn': 0.05}",0.047,0.047,0.0,1,Au0.95 Sn0.05
2039,[18402],Au0.976Pd0.024Ga2,Au0.976Pd0.024Ga2,"{'Au': 0.976, 'Ga': 2.0, 'Pd': 0.024}",1.56,1.56,0.0,1,Au0.976 Pd0.024 Ga2
2040,[17234],Au0.978In0.022,Au0.978In0.022,"{'Au': 0.978, 'In': 0.022}",0.0005,0.0005,0.0,1,Au0.978 In0.022
2041,[19310],Au0.98Pd0.02Ga2,Au0.98Pd0.02Ga2,"{'Au': 0.98, 'Ga': 2.0, 'Pd': 0.02}",1.51,1.51,0.0,1,Au0.98 Pd0.02 Ga2
2042,"[14760, 18468]",Nb3Rh0.02Au0.98,Nb3Rh0.02Au0.98,"{'Au': 0.98, 'Nb': 3.0, 'Rh': 0.02}",11.9,11.4,0.5,2,Nb3 Rh0.02 Au0.98
2043,[18401],Au0.988Pd0.012Ga2,Au0.988Pd0.012Ga2,"{'Au': 0.988, 'Ga': 2.0, 'Pd': 0.012}",1.25,1.25,0.0,1,Au0.988 Pd0.012 Ga2
2044,"[20625, 25039]",Ba1Pt3Au1Ge12,Ba1Pt3Au1Ge12,"{'Au': 1.0, 'Ba': 1.0, 'Ge': 12.0, 'Pt': 3.0}",7.0,6.975,0.025,2,Ba1 Pt3 Au1 Ge12
2045,"[12931, 12932, 25475, 25979]",Au1Be1,Au1Be1,"{'Au': 1.0, 'Be': 1.0}",3.3,2.5125,0.9587850385000001,4,Au1 Be1
2046,"[12927, 14637]",Au1Ga1,Au1Ga1,"{'Au': 1.0, 'Ga': 1.0}",1.2,1.2,0.0,2,Au1 Ga1
2047,"[12940, 12941, 18400, 19281, 19336]",Au1Ga2,Au1Ga2,"{'Au': 1.0, 'Ga': 2.0}",1.9,1.292,0.30419730440000003,5,Au1 Ga2
2048,[19678],Au1Ga40Mo8,Au1Ga40Mo8,"{'Au': 1.0, 'Ga': 40.0, 'Mo': 8.0}",9.4,9.4,0.0,1,Au1 Ga40 Mo8
2049,[12939],Au1Ge1,Au1Ge1,"{'Au': 1.0, 'Ge': 1.0}",2.7,2.7,0.0,1,Au1 Ge1
2050,"[12935, 14892]",Au1In1,Au1In1,"{'Au': 1.0, 'In': 1.0}",0.6000000000000001,0.5,0.1,2,Au1 In1
2051,[20346],Au1Pd1In1Y1,Au1Pd1In1Y1,"{'Au': 1.0, 'In': 1.0, 'Pd': 1.0, 'Y': 1.0}",2.3,2.3,0.0,1,Au1 Pd1 In1 Y1
2052,[12936],Au1In2,Au1In2,"{'Au': 1.0, 'In': 2.0}",0.22,0.22,0.0,1,Au1 In2
2053,[19339],Au1Lu1,Au1Lu1,"{'Au': 1.0, 'Lu': 1.0}",0.37,0.37,0.0,1,Au1 Lu1
2054,[14751],Nb1.71V1.29Au1,Nb1.71V1.29Au1,"{'Au': 1.0, 'Nb': 1.71, 'V': 1.29}",1.6,1.6,0.0,1,Nb1.71 V1.29 Au1
2055,[14752],Nb2.01V0.99Au1,Nb2.01V0.99Au1,"{'Au': 1.0, 'Nb': 2.01, 'V': 0.99}",2.9,2.9,0.0,1,Nb2.01 V0.99 Au1
2056,[14753],Nb2.25V0.75Au1,Nb2.25V0.75Au1,"{'Au': 1.0, 'Nb': 2.25, 'V': 0.75}",3.0,3.0,0.0,1,Nb2.25 V0.75 Au1
2057,[14754],Nb2.49V0.51Au1,Nb2.49V0.51Au1,"{'Au': 1.0, 'Nb': 2.49, 'V': 0.51}",4.6,4.6,0.0,1,Nb2.49 V0.51 Au1
2058,[14755],Nb2.55V0.45Au1,Nb2.55V0.45Au1,"{'Au': 1.0, 'Nb': 2.55, 'V': 0.45}",5.1,5.1,0.0,1,Nb2.55 V0.45 Au1
2059,[14757],Nb2.85V0.15Au1,Nb2.85V0.15Au1,"{'Au': 1.0, 'Nb': 2.85, 'V': 0.15}",8.4,8.4,0.0,1,Nb2.85 V0.15 Au1
2060,[14756],Nb2.9V0.3Au1,Nb2.9V0.3Au1,"{'Au': 1.0, 'Nb': 2.9, 'V': 0.30000000000000004}",6.5,6.5,0.0,1,Nb2.9 V0.3 Au1
2061,"[11944, 12943, 12944, 12945, 14891, 15976, 15978, 15979, 15980, 15981, 15988, 15989, 18436, 19319]",Au1Nb3,Au1Nb3,"{'Au': 1.0, 'Nb': 3.0}",11.5,8.9207142857,3.9910014216,14,Au1 Nb3
2062,"[12958, 14623]",Au1Pb2,Au1Pb2,"{'Au': 1.0, 'Pb': 2.0}",4.42,3.76,0.66,2,Au1 Pb2
2063,"[12957, 14897]",Au1Pb3,Au1Pb3,"{'Au': 1.0, 'Pb': 3.0}",4.4,4.325,0.075,2,Au1 Pb3
2064,"[12952, 14604]",Au1Sb2,Au1Sb2,"{'Au': 1.0, 'Sb': 2.0}",0.58,0.58,0.0,2,Au1 Sb2
2065,[19338],Au1Sc1,Au1Sc1,"{'Au': 1.0, 'Sc': 1.0}",2.0,2.0,0.0,1,Au1 Sc1
2066,"[24129, 25480]",Sr1Au1Si3,Sr1Au1Si3,"{'Au': 1.0, 'Si': 3.0, 'Sr': 1.0}",1.65,1.595,0.055,2,Sr1 Au1 Si3
2067,"[12950, 14619]",Au1Sn1,Au1Sn1,"{'Au': 1.0, 'Sn': 1.0}",1.25,1.25,0.0,2,Au1 Sn1
2068,[12969],Au1Ta4.3,Au1Ta4.3,"{'Au': 1.0, 'Ta': 4.3}",0.51,0.51,0.0,1,Au1 Ta4.3
2069,"[23694, 23726]",Au1Te2,Au1Te2,"{'Au': 1.0, 'Te': 2.0}",2.3,2.05,0.25,2,Au1 Te2
2070,[12964],Au1Tl1,Au1Tl1,"{'Au': 1.0, 'Tl': 1.0}",1.92,1.92,0.0,1,Au1 Tl1
2071,[12966],Au1Tl2,Au1Tl2,"{'Au': 1.0, 'Tl': 2.0}",4.25,4.25,0.0,1,Au1 Tl2
2072,"[14903, 19170, 19171, 19315, 19320]",Au1V3,Au1V3,"{'Au': 1.0, 'V': 3.0}",2.9699999999999998,2.2192,0.859376844,5,Au1 V3
2073,"[12962, 14641]",Au1Zn3,Au1Zn3,"{'Au': 1.0, 'Zn': 3.0}",1.28,1.245,0.035,2,Au1 Zn3
2074,[12961],Au1Zr3,Au1Zr3,"{'Au': 1.0, 'Zr': 3.0}",0.92,0.92,0.0,1,Au1 Zr3
2075,[20345],Au1.3Pd0.7In1Y1,Au1.3Pd0.7In1Y1,"{'Au': 1.3, 'In': 1.0, 'Pd': 0.7000000000000001, 'Y': 1.0}",2.68,2.68,0.0,1,Au1.3 Pd0.7 In1 Y1
2076,[20344],Au1.6Pd0.4In1Y1,Au1.6Pd0.4In1Y1,"{'Au': 1.6, 'In': 1.0, 'Pd': 0.4, 'Y': 1.0}",2.64,2.64,0.0,1,Au1.6 Pd0.4 In1 Y1
2077,[20343],Au1.8Pd0.2In1Y1,Au1.8Pd0.2In1Y1,"{'Au': 1.8, 'In': 1.0, 'Pd': 0.2, 'Y': 1.0}",2.27,2.27,0.0,1,Au1.8 Pd0.2 In1 Y1
2078,"[12930, 24594]",Au2Bi1,Au2Bi1,"{'Au': 2.0, 'Bi': 1.0}",1.8399999999999999,1.77,0.07,2,Au2 Bi1
2079,"[24007, 24008, 24279, 25177]",Ce1Au2Si2,Ce1Au2Si2,"{'Au': 2.0, 'Ce': 1.0, 'Si': 2.0}",2.55,2.09875,0.5591553340000001,4,Ce1 Au2 Si2
2080,[19341],In1Sc1Au2,In1Sc1Au2,"{'Au': 2.0, 'In': 1.0, 'Sc': 1.0}",3.02,3.02,0.0,1,In1 Sc1 Au2
2081,"[19342, 20342]",In1Y1Au2,In1Y1Au2,"{'Au': 2.0, 'In': 1.0, 'Y': 1.0}",1.9,1.82,0.08,2,In1 Y1 Au2
2082,"[12959, 19324, 24593, 24749, 26099]",Au2Pb1,Au2Pb1,"{'Au': 2.0, 'Pb': 1.0}",6.95,2.848,2.2495101689,5,Au2 Pb1
2083,[12968],Au3Te5,Au3Te5,"{'Au': 3.0, 'Te': 5.0}",1.62,1.62,0.0,1,Au3 Te5
2084,[12933],Au5Ba1,Au5Ba1,"{'Au': 5.0, 'Ba': 1.0}",0.4,0.4,0.0,1,Au5 Ba1
2085,[12928],Au5Ca1,Au5Ca1,"{'Au': 5.0, 'Ca': 1.0}",0.34,0.34,0.0,1,Au5 Ca1
2086,"[12951, 14896]",Au5Sn1,Au5Sn1,"{'Au': 5.0, 'Sn': 1.0}",1.1,0.9,0.2,2,Au5 Sn1
2087,[12383],La75Au15Cu10,La75Au15Cu10,"{'Au': 15.0, 'Cu': 10.0, 'La': 75.0}",3.795,3.795,0.0,1,La75 Au15 Cu10
2088,[23539],Au16.7Pd16.6Te66.7,Au16.7Pd16.6Te66.7,"{'Au': 16.7, 'Pd': 16.6, 'Te': 66.7}",4.6,4.6,0.0,1,Au16.7 Pd16.6 Te66.7
2089,[12382],Au22La78,Au22La78,"{'Au': 22.0, 'La': 78.0}",3.934,3.934,0.0,1,Au22 La78
2090,[23534],Au25Sb75,Au25Sb75,"{'Au': 25.0, 'Sb': 75.0}",6.7,6.7,0.0,1,Au25 Sb75
2091,[23538],Au30Pd3.3Te66.6,Au30Pd3.3Te66.6,"{'Au': 30.0, 'Pd': 3.3, 'Te': 66.6}",2.6,2.6,0.0,1,Au30 Pd3.3 Te66.6
2092,[24331],Au63.5Ge20.5Yb16,Au63.5Ge20.5Yb16,"{'Au': 63.5, 'Ge': 20.5, 'Yb': 16.0}",0.36,0.36,0.0,1,Au63.5 Ge20.5 Yb16
2093,[24330],Au64Ge22Yb14,Au64Ge22Yb14,"{'Au': 64.0, 'Ge': 22.0, 'Yb': 14.0}",0.68,0.68,0.0,1,Au64 Ge22 Yb14
2094,[12076],Mo1B0.01C0.82,Mo1B0.01C0.82,"{'B': 0.01, 'C': 0.8200000000000001, 'Mo': 1.0}",12.2,12.2,0.0,1,Mo1 B0.01 C0.82
2095,[20689],B0.015C0.985,B0.015C0.985,"{'B': 0.015, 'C': 0.985}",12.0,12.0,0.0,1,B0.015 C0.985
2096,[14901],B0.03C0.51Mo0.47,B0.03C0.51Mo0.47,"{'B': 0.03, 'C': 0.51, 'Mo': 0.47000000000000003}",12.5,12.5,0.0,1,B0.03 C0.51 Mo0.47
2097,[12077],Mo1B0.03C0.82,Mo1B0.03C0.82,"{'B': 0.03, 'C': 0.8200000000000001, 'Mo': 1.0}",11.8,11.8,0.0,1,Mo1 B0.03 C0.82
2098,[21864],B0.039C0.961Si1,B0.039C0.961Si1,"{'B': 0.039, 'C': 0.961, 'Si': 1.0}",1.4,1.4,0.0,1,B0.039 C0.961 Si1
2099,[12683],Mg1C0.885B0.04Ni3,Mg1C0.885B0.04Ni3,"{'B': 0.04, 'C': 0.885, 'Mg': 1.0, 'Ni': 3.0}",6.97,6.97,0.0,1,Mg1 C0.885 B0.04 Ni3
2100,[5158],Sr2Cu1C0.96B0.04O5,Sr2Cu1C0.96B0.04O5,"{'B': 0.04, 'C': 0.96, 'Cu': 1.0, 'O': 5.0, 'Sr': 2.0}",7.0,7.0,0.0,1,Sr2 Cu1 C0.96 B0.04 O5
2101,[21870],B0.048C0.952,B0.048C0.952,"{'B': 0.048, 'C': 0.9520000000000001}",6.6,6.6,0.0,1,B0.048 C0.952
2102,[12078],Mo1B0.05C0.82,Mo1B0.05C0.82,"{'B': 0.05, 'C': 0.8200000000000001, 'Mo': 1.0}",11.5,11.5,0.0,1,Mo1 B0.05 C0.82
2103,[5159],Sr2Cu1C0.95B0.05O5,Sr2Cu1C0.95B0.05O5,"{'B': 0.05, 'C': 0.9500000000000001, 'Cu': 1.0, 'O': 5.0, 'Sr': 2.0}",12.5,12.5,0.0,1,Sr2 Cu1 C0.95 B0.05 O5
2104,[22498],Zr1Ru1P0.95B0.05,Zr1Ru1P0.95B0.05,"{'B': 0.05, 'P': 0.9500000000000001, 'Ru': 1.0, 'Zr': 1.0}",8.4,8.4,0.0,1,Zr1 Ru1 P0.95 B0.05
2105,[21863],B0.057Si0.943,B0.057Si0.943,"{'B': 0.057, 'Si': 0.9430000000000001}",0.34,0.34,0.0,1,B0.057 Si0.943
2106,[5160],Sr2Cu1C0.94B0.06O5,Sr2Cu1C0.94B0.06O5,"{'B': 0.06, 'C': 0.9400000000000001, 'Cu': 1.0, 'O': 5.0, 'Sr': 2.0}",21.0,21.0,0.0,1,Sr2 Cu1 C0.94 B0.06 O5
2107,[5161],Sr2Cu1C0.93B0.07O5,Sr2Cu1C0.93B0.07O5,"{'B': 0.07, 'C': 0.93, 'Cu': 1.0, 'O': 5.0, 'Sr': 2.0}",23.0,23.0,0.0,1,Sr2 Cu1 C0.93 B0.07 O5
2108,[12684],Mg1C0.853B0.072Ni3,Mg1C0.853B0.072Ni3,"{'B': 0.07200000000000001, 'C': 0.853, 'Mg': 1.0, 'Ni': 3.0}",6.76,6.76,0.0,1,Mg1 C0.853 B0.072 Ni3
2109,[5162],Sr2Cu1C0.92B0.08O5,Sr2Cu1C0.92B0.08O5,"{'B': 0.08, 'C': 0.92, 'Cu': 1.0, 'O': 5.0, 'Sr': 2.0}",25.0,25.0,0.0,1,Sr2 Cu1 C0.92 B0.08 O5
2110,[22834],Mg1.2C1.52B0.08Ni3,Mg1.2C1.52B0.08Ni3,"{'B': 0.08, 'C': 1.52, 'Mg': 1.2, 'Ni': 3.0}",6.9,6.9,0.0,1,Mg1.2 C1.52 B0.08 Ni3
2111,[5163],Sr2Cu1C0.91B0.09O5,Sr2Cu1C0.91B0.09O5,"{'B': 0.09, 'C': 0.91, 'Cu': 1.0, 'O': 5.0, 'Sr': 2.0}",26.5,26.5,0.0,1,Sr2 Cu1 C0.91 B0.09 O5
2112,[11629],Y0.8Ca0.2Sr1Ba1Cu2.9B0.1O7.3-z,Y0.8Ca0.2Sr1Ba1Cu2.9B0.1O7.3,"{'B': 0.1, 'Ba': 1.0, 'Ca': 0.2, 'Cu': 2.9, 'O': 7.3, 'Sr': 1.0, 'Y': 0.8}",35.0,35.0,0.0,1,Y0.8 Ca0.2 Sr1 Ba1 Cu2.9 B0.1 O7.3
2113,[11321],Y2C2.9B0.1,Y2C2.9B0.1,"{'B': 0.1, 'C': 2.9, 'Y': 2.0}",16.4,16.4,0.0,1,Y2 C2.9 B0.1
2114,[22499],Zr1Ru1P0.9B0.1,Zr1Ru1P0.9B0.1,"{'B': 0.1, 'P': 0.9, 'Ru': 1.0, 'Zr': 1.0}",8.1,8.1,0.0,1,Zr1 Ru1 P0.9 B0.1
2115,[15255],Si10.9V3B0.1,Si10.9V3B0.1,"{'B': 0.1, 'Si': 10.9, 'V': 3.0}",15.8,15.8,0.0,1,Si10.9 V3 B0.1
2116,[12685],Mg1C0.814B0.111Ni3,Mg1C0.814B0.111Ni3,"{'B': 0.111, 'C': 0.8140000000000001, 'Mg': 1.0, 'Ni': 3.0}",6.88,6.88,0.0,1,Mg1 C0.814 B0.111 Ni3
2117,[5164],Sr2Cu1C0.82B0.12O5,Sr2Cu1C0.82B0.12O5,"{'B': 0.12, 'C': 0.8200000000000001, 'Cu': 1.0, 'O': 5.0, 'Sr': 2.0}",30.0,30.0,0.0,1,Sr2 Cu1 C0.82 B0.12 O5
2118,[5165],Sr2Cu1C0.86B0.14O5,Sr2Cu1C0.86B0.14O5,"{'B': 0.14, 'C': 0.86, 'Cu': 1.0, 'O': 5.0, 'Sr': 2.0}",31.0,31.0,0.0,1,Sr2 Cu1 C0.86 B0.14 O5
2119,"[3586, 5166]",Sr2Cu1C0.85B0.15O5,Sr2Cu1C0.85B0.15O5,"{'B': 0.15, 'C': 0.85, 'Cu': 1.0, 'O': 5.0, 'Sr': 2.0}",32.0,32.0,0.0,2,Sr2 Cu1 C0.85 B0.15 O5
2120,[22500],Zr1Ru1P0.85B0.15,Zr1Ru1P0.85B0.15,"{'B': 0.15, 'P': 0.85, 'Ru': 1.0, 'Zr': 1.0}",6.4,6.4,0.0,1,Zr1 Ru1 P0.85 B0.15
2121,[12686],Mg1C0.771B0.154Ni3,Mg1C0.771B0.154Ni3,"{'B': 0.154, 'C': 0.771, 'Mg': 1.0, 'Ni': 3.0}",6.44,6.44,0.0,1,Mg1 C0.771 B0.154 Ni3
2122,[22835],Mg1.2C1.44B0.16Ni3,Mg1.2C1.44B0.16Ni3,"{'B': 0.16, 'C': 1.44, 'Mg': 1.2, 'Ni': 3.0}",6.6,6.6,0.0,1,Mg1.2 C1.44 B0.16 Ni3
2123,[11125],Y0.8Ca0.2Sr1Ba1Cu2.8B0.2O7,Y0.8Ca0.2Sr1Ba1Cu2.8B0.2O7,"{'B': 0.2, 'Ba': 1.0, 'Ca': 0.2, 'Cu': 2.8, 'O': 7.0, 'Sr': 1.0, 'Y': 0.8}",45.0,45.0,0.0,1,Y0.8 Ca0.2 Sr1 Ba1 Cu2.8 B0.2 O7
2124,[11630],Y0.8Ca0.2Sr1Ba1Cu2.8B0.2O7.6-z,Y0.8Ca0.2Sr1Ba1Cu2.8B0.2O7.6,"{'B': 0.2, 'Ba': 1.0, 'Ca': 0.2, 'Cu': 2.8, 'O': 7.6, 'Sr': 1.0, 'Y': 0.8}",37.0,37.0,0.0,1,Y0.8 Ca0.2 Sr1 Ba1 Cu2.8 B0.2 O7.6
2125,[17566],Nb1B0.2Rh3,Nb1B0.2Rh3,"{'B': 0.2, 'Nb': 1.0, 'Rh': 3.0}",6.4,6.4,0.0,1,Nb1 B0.2 Rh3
2126,[20884],Nb5Si2.8B0.2,Nb5Si2.8B0.2,"{'B': 0.2, 'Nb': 5.0, 'Si': 2.8}",5.9,5.9,0.0,1,Nb5 Si2.8 B0.2
2127,[22501],Zr1Ru1P0.8B0.2,Zr1Ru1P0.8B0.2,"{'B': 0.2, 'P': 0.8, 'Ru': 1.0, 'Zr': 1.0}",5.4,5.4,0.0,1,Zr1 Ru1 P0.8 B0.2
2128,[11631],Y0.8Ca0.2Sr1Ba1Cu2.7B0.3O7.9-z,Y0.8Ca0.2Sr1Ba1Cu2.7B0.3O7.9,"{'B': 0.30000000000000004, 'Ba': 1.0, 'Ca': 0.2, 'Cu': 2.7, 'O': 7.9, 'Sr': 1.0, 'Y': 0.8}",38.0,38.0,0.0,1,Y0.8 Ca0.2 Sr1 Ba1 Cu2.7 B0.3 O7.9
2129,[5295],Ca0.5Sr2.5Cu2C0.7B0.3O3+z,Ca0.5Sr2.5Cu2C0.7B0.3O3,"{'B': 0.30000000000000004, 'C': 0.7000000000000001, 'Ca': 0.5, 'Cu': 2.0, 'O': 3.0, 'Sr': 2.5}",52.0,52.0,0.0,1,Ca0.5 Sr2.5 Cu2 C0.7 B0.3 O3
2130,[14907],B0.3Ru0.7,B0.3Ru0.7,"{'B': 0.30000000000000004, 'Ru': 0.7000000000000001}",2.58,2.58,0.0,1,B0.3 Ru0.7
2131,[11632],Y0.8Ca0.2Sr1Ba1Cu2.6B0.4O8.2-z,Y0.8Ca0.2Sr1Ba1Cu2.6B0.4O8.2,"{'B': 0.4, 'Ba': 1.0, 'Ca': 0.2, 'Cu': 2.6, 'O': 8.2, 'Sr': 1.0, 'Y': 0.8}",31.0,31.0,0.0,1,Y0.8 Ca0.2 Sr1 Ba1 Cu2.6 B0.4 O8.2
2132,[22504],La1Ru2P1.6B0.4,La1Ru2P1.6B0.4,"{'B': 0.4, 'La': 1.0, 'P': 1.6, 'Ru': 2.0}",2.0,2.0,0.0,1,La1 Ru2 P1.6 B0.4
2133,[20885],Nb5Si2.6B0.4,Nb5Si2.6B0.4,"{'B': 0.4, 'Nb': 5.0, 'Si': 2.6}",6.4,6.4,0.0,1,Nb5 Si2.6 B0.4
2134,[22502],Zr1Ru1P0.6B0.4,Zr1Ru1P0.6B0.4,"{'B': 0.4, 'P': 0.6000000000000001, 'Ru': 1.0, 'Zr': 1.0}",5.6,5.6,0.0,1,Zr1 Ru1 P0.6 B0.4
2135,[3123],Y1Sr1.55Ba0.45Cu2.5B0.5O7,Y1Sr1.55Ba0.45Cu2.5B0.5O7,"{'B': 0.5, 'Ba': 0.45, 'Cu': 2.5, 'O': 7.0, 'Sr': 1.55, 'Y': 1.0}",16.0,16.0,0.0,1,Y1 Sr1.55 Ba0.45 Cu2.5 B0.5 O7
2136,[3785],Y0.85Ca0.15Sr1.5Ba0.5Cu2.5B0.5O7,Y0.85Ca0.15Sr1.5Ba0.5Cu2.5B0.5O7,"{'B': 0.5, 'Ba': 0.5, 'Ca': 0.15, 'Cu': 2.5, 'O': 7.0, 'Sr': 1.5, 'Y': 0.85}",35.5,35.5,0.0,1,Y0.85 Ca0.15 Sr1.5 Ba0.5 Cu2.5 B0.5 O7
2137,[3124],Y1Sr1.4Ba0.6Cu2.5B0.5O7,Y1Sr1.4Ba0.6Cu2.5B0.5O7,"{'B': 0.5, 'Ba': 0.6000000000000001, 'Cu': 2.5, 'O': 7.0, 'Sr': 1.4, 'Y': 1.0}",24.0,24.0,0.0,1,Y1 Sr1.4 Ba0.6 Cu2.5 B0.5 O7
2138,[3125],Y1Sr1.2Ba0.8Cu2.5B0.5O7,Y1Sr1.2Ba0.8Cu2.5B0.5O7,"{'B': 0.5, 'Ba': 0.8, 'Cu': 2.5, 'O': 7.0, 'Sr': 1.2, 'Y': 1.0}",35.0,35.0,0.0,1,Y1 Sr1.2 Ba0.8 Cu2.5 B0.5 O7
2139,[3786],Y0.85Ca0.15Sr1Ba1Cu2.5B0.5O7,Y0.85Ca0.15Sr1Ba1Cu2.5B0.5O7,"{'B': 0.5, 'Ba': 1.0, 'Ca': 0.15, 'Cu': 2.5, 'O': 7.0, 'Sr': 1.0, 'Y': 0.85}",43.6,43.6,0.0,1,Y0.85 Ca0.15 Sr1 Ba1 Cu2.5 B0.5 O7
2140,[11633],Y0.8Ca0.2Sr1Ba1Cu2.5B0.5O8.5-z,Y0.8Ca0.2Sr1Ba1Cu2.5B0.5O8.5,"{'B': 0.5, 'Ba': 1.0, 'Ca': 0.2, 'Cu': 2.5, 'O': 8.5, 'Sr': 1.0, 'Y': 0.8}",28.0,28.0,0.0,1,Y0.8 Ca0.2 Sr1 Ba1 Cu2.5 B0.5 O8.5
2141,"[3126, 3788]",Y1Sr1Ba1Cu2.5B0.5O7,Y1Sr1Ba1Cu2.5B0.5O7,"{'B': 0.5, 'Ba': 1.0, 'Cu': 2.5, 'O': 7.0, 'Sr': 1.0, 'Y': 1.0}",44.0,34.5,9.5,2,Y1 Sr1 Ba1 Cu2.5 B0.5 O7
2142,[3127],Y1Sr0.8Ba1.2Cu2.5B0.5O7,Y1Sr0.8Ba1.2Cu2.5B0.5O7,"{'B': 0.5, 'Ba': 1.2, 'Cu': 2.5, 'O': 7.0, 'Sr': 0.8, 'Y': 1.0}",51.0,51.0,0.0,1,Y1 Sr0.8 Ba1.2 Cu2.5 B0.5 O7
2143,[3128],Y1Sr0.6Ba1.4Cu2.5B0.5O7,Y1Sr0.6Ba1.4Cu2.5B0.5O7,"{'B': 0.5, 'Ba': 1.4, 'Cu': 2.5, 'O': 7.0, 'Sr': 0.6000000000000001, 'Y': 1.0}",47.0,47.0,0.0,1,Y1 Sr0.6 Ba1.4 Cu2.5 B0.5 O7
2144,[3787],Y0.85Ca0.15Sr0.5Ba1.5Cu2.5B0.5O7,Y0.85Ca0.15Sr0.5Ba1.5Cu2.5B0.5O7,"{'B': 0.5, 'Ba': 1.5, 'Ca': 0.15, 'Cu': 2.5, 'O': 7.0, 'Sr': 0.5, 'Y': 0.85}",55.6,55.6,0.0,1,Y0.85 Ca0.15 Sr0.5 Ba1.5 Cu2.5 B0.5 O7
2145,[3789],Y1Sr0.5Ba1.5Cu2.5B0.5O7,Y1Sr0.5Ba1.5Cu2.5B0.5O7,"{'B': 0.5, 'Ba': 1.5, 'Cu': 2.5, 'O': 7.0, 'Sr': 0.5, 'Y': 1.0}",15.0,15.0,0.0,1,Y1 Sr0.5 Ba1.5 Cu2.5 B0.5 O7
2146,[3129],Y1Sr0.4Ba1.6Cu2.5B0.5O7,Y1Sr0.4Ba1.6Cu2.5B0.5O7,"{'B': 0.5, 'Ba': 1.6, 'Cu': 2.5, 'O': 7.0, 'Sr': 0.4, 'Y': 1.0}",35.0,35.0,0.0,1,Y1 Sr0.4 Ba1.6 Cu2.5 B0.5 O7
2147,"[8828, 8829]",B0.6C0.4Sr0.5Ba1.5Ca2Cu3O9,B0.6C0.4Sr0.5Ba1.5Ca2Cu3O9,"{'B': 0.6000000000000001, 'Ba': 1.5, 'C': 0.4, 'Ca': 2.0, 'Cu': 3.0, 'O': 9.0, 'Sr': 0.5}",119.0,119.0,0.0,2,B0.6 C0.4 Sr0.5 Ba1.5 Ca2 Cu3 O9
2148,[5296],Ba2Ca4Cu5C0.4B0.6O3+z,Ba2Ca4Cu5C0.4B0.6O3,"{'B': 0.6000000000000001, 'Ba': 2.0, 'C': 0.4, 'Ca': 4.0, 'Cu': 5.0, 'O': 3.0}",120.0,120.0,0.0,1,Ba2 Ca4 Cu5 C0.4 B0.6 O3
2149,[20886],Nb5Si2.4B0.6,Nb5Si2.4B0.6,"{'B': 0.6000000000000001, 'Nb': 5.0, 'Si': 2.4}",7.8,7.8,0.0,1,Nb5 Si2.4 B0.6
2150,[17186],B0.67Mg0.33,B0.67Mg0.33,"{'B': 0.67, 'Mg': 0.33}",6.1,6.1,0.0,1,B0.67 Mg0.33
2151,[12372],B0.69Mg0.31,B0.69Mg0.31,"{'B': 0.6900000000000001, 'Mg': 0.31}",5.7,5.7,0.0,1,B0.69 Mg0.31
2152,[11428],Lu1Ni1B0.8C1,Lu1Ni1B0.8C1,"{'B': 0.8, 'C': 1.0, 'Lu': 1.0, 'Ni': 1.0}",2.6,2.6,0.0,1,Lu1 Ni1 B0.8 C1
2153,[11430],Lu1Ni1B0.8C1.2,Lu1Ni1B0.8C1.2,"{'B': 0.8, 'C': 1.2, 'Lu': 1.0, 'Ni': 1.0}",3.2,3.2,0.0,1,Lu1 Ni1 B0.8 C1.2
2154,[20887],Nb5Si2.2B0.8,Nb5Si2.2B0.8,"{'B': 0.8, 'Nb': 5.0, 'Si': 2.2}",6.6,6.6,0.0,1,Nb5 Si2.2 B0.8
2155,[11341],Mg1B0.85C0.15,Mg1B0.85C0.15,"{'B': 0.85, 'C': 0.15, 'Mg': 1.0}",24.0,24.0,0.0,1,Mg1 B0.85 C0.15
2156,[11340],Mg1B0.9C0.1,Mg1B0.9C0.1,"{'B': 0.9, 'C': 0.1, 'Mg': 1.0}",30.0,30.0,0.0,1,Mg1 B0.9 C0.1
2157,[11427],Lu1Ni1B0.9C1,Lu1Ni1B0.9C1,"{'B': 0.9, 'C': 1.0, 'Lu': 1.0, 'Ni': 1.0}",2.6,2.6,0.0,1,Lu1 Ni1 B0.9 C1
2158,[11429],Lu1Ni1B0.9C1.1,Lu1Ni1B0.9C1.1,"{'B': 0.9, 'C': 1.1, 'Lu': 1.0, 'Ni': 1.0}",2.9,2.9,0.0,1,Lu1 Ni1 B0.9 C1.1
2159,[11433],Lu1Ni1B0.95C0.95,Lu1Ni1B0.95C0.95,"{'B': 0.9500000000000001, 'C': 0.9500000000000001, 'Lu': 1.0, 'Ni': 1.0}",2.5,2.5,0.0,1,Lu1 Ni1 B0.95 C0.95
2160,[11339],Mg1B0.96C0.04,Mg1B0.96C0.04,"{'B': 0.96, 'C': 0.04, 'Mg': 1.0}",35.5,35.5,0.0,1,Mg1 B0.96 C0.04
2161,[21865],B0.978C0.022Si1,B0.978C0.022Si1,"{'B': 0.978, 'C': 0.022, 'Si': 1.0}",1.35,1.35,0.0,1,B0.978 C0.022 Si1
2162,"[17320, 22055]",B1,B1,{'B': 1.0},11.0,8.5,2.5,2,B1
2163,[15512],Lu1Pd4B1C0.2,Lu1Pd4B1C0.2,"{'B': 1.0, 'C': 0.2, 'Lu': 1.0, 'Pd': 4.0}",10.0,10.0,0.0,1,Lu1 Pd4 B1 C0.2
2164,[15511],Y1Pd4B1C0.2,Y1Pd4B1C0.2,"{'B': 1.0, 'C': 0.2, 'Pd': 4.0, 'Y': 1.0}",21.0,21.0,0.0,1,Y1 Pd4 B1 C0.2
2165,[11432],Lu1Ni1B1C0.85,Lu1Ni1B1C0.85,"{'B': 1.0, 'C': 0.85, 'Lu': 1.0, 'Ni': 1.0}",2.4,2.4,0.0,1,Lu1 Ni1 B1 C0.85
2166,[15639],Lu1Ni0.9Cu0.1B1C1,Lu1Ni0.9Cu0.1B1C1,"{'B': 1.0, 'C': 1.0, 'Cu': 0.1, 'Lu': 1.0, 'Ni': 0.9}",3.3,3.3,0.0,1,Lu1 Ni0.9 Cu0.1 B1 C1
2167,[15640],Lu1Ni0.8Cu0.2B1C1,Lu1Ni0.8Cu0.2B1C1,"{'B': 1.0, 'C': 1.0, 'Cu': 0.2, 'Lu': 1.0, 'Ni': 0.8}",3.38,3.38,0.0,1,Lu1 Ni0.8 Cu0.2 B1 C1
2168,[16373],Gd1Re1B1C1,Gd1Re1B1C1,"{'B': 1.0, 'C': 1.0, 'Gd': 1.0, 'Re': 1.0}",4.0,4.0,0.0,1,Gd1 Re1 B1 C1
2169,[20170],Mo1.94Hf0.06B1C1,Mo1.94Hf0.06B1C1,"{'B': 1.0, 'C': 1.0, 'Hf': 0.06, 'Mo': 1.94}",5.8,5.8,0.0,1,Mo1.94 Hf0.06 B1 C1
2170,[20171],Mo1.905Hf0.095B1C1,Mo1.905Hf0.095B1C1,"{'B': 1.0, 'C': 1.0, 'Hf': 0.095, 'Mo': 1.905}",5.0,5.0,0.0,1,Mo1.905 Hf0.095 B1 C1
2171,[15638],Lu1Ni0.8V0.2B1C1,Lu1Ni0.8V0.2B1C1,"{'B': 1.0, 'C': 1.0, 'Lu': 1.0, 'Ni': 0.8, 'V': 0.2}",2.6,2.6,0.0,1,Lu1 Ni0.8 V0.2 B1 C1
2172,[15637],Lu1Ni0.9V0.1B1C1,Lu1Ni0.9V0.1B1C1,"{'B': 1.0, 'C': 1.0, 'Lu': 1.0, 'Ni': 0.9, 'V': 0.1}",2.94,2.94,0.0,1,Lu1 Ni0.9 V0.1 B1 C1
2173,"[11426, 15636, 17256]",Lu1Ni1B1C1,Lu1Ni1B1C1,"{'B': 1.0, 'C': 1.0, 'Lu': 1.0, 'Ni': 1.0}",2.96,2.7866666667,0.2041785711,3,Lu1 Ni1 B1 C1
2174,[16370],Lu1Re1B1C1,Lu1Re1B1C1,"{'B': 1.0, 'C': 1.0, 'Lu': 1.0, 'Re': 1.0}",6.1,6.1,0.0,1,Lu1 Re1 B1 C1
2175,[20173],Mo1.7Ta0.3B1C1,Mo1.7Ta0.3B1C1,"{'B': 1.0, 'C': 1.0, 'Mo': 1.7000000000000002, 'Ta': 0.30000000000000004}",4.6,4.6,0.0,1,Mo1.7 Ta0.3 B1 C1
2176,[20175],Mo1.8Rh0.2B1C1,Mo1.8Rh0.2B1C1,"{'B': 1.0, 'C': 1.0, 'Mo': 1.8, 'Rh': 0.2}",9.1,9.1,0.0,1,Mo1.8 Rh0.2 B1 C1