,sc_id,supercon_formula,cleaned_formula,material_dict,highest_Tc,average_Tc,std_Tc,entry_count,composition
1734,[22849],Eu0.51K0.49Fe2As2,Eu0.51K0.49Fe2As2,"{'As': 2.0, 'Eu': 0.51, 'Fe': 2.0, 'K': 0.49}",32.5,32.5,0.0,1,Eu0.51 K0.49 Fe2 As2
1735,[22848],Eu0.56K0.44Fe2As2,Eu0.56K0.44Fe2As2,"{'As': 2.0, 'Eu': 0.56, 'Fe': 2.0, 'K': 0.44}",28.7,28.7,0.0,1,Eu0.56 K0.44 Fe2 As2
1736,[22847],Eu0.64K0.36Fe2As2,Eu0.64K0.36Fe2As2,"{'As': 2.0, 'Eu': 0.64, 'Fe': 2.0, 'K': 0.36}",27.6,27.6,0.0,1,Eu0.64 K0.36 Fe2 As2
1737,[24513],Eu0.7Na0.3Fe2As2,Eu0.7Na0.3Fe2As2,"{'As': 2.0, 'Eu': 0.7000000000000001, 'Fe': 2.0, 'Na': 0.30000000000000004}",32.0,32.0,0.0,1,Eu0.7 Na0.3 Fe2 As2
1738,[25118],Eu0.85La0.15Fe1As2,Eu0.85La0.15Fe1As2,"{'As': 2.0, 'Eu': 0.85, 'Fe': 1.0, 'La': 0.15}",9.3,9.3,0.0,1,Eu0.85 La0.15 Fe1 As2
1739,[25119],Eu0.9La0.1Fe1As2,Eu0.9La0.1Fe1As2,"{'As': 2.0, 'Eu': 0.9, 'Fe': 1.0, 'La': 0.1}",6.0,6.0,0.0,1,Eu0.9 La0.1 Fe1 As2
1740,[24161],Eu1Fe1.2As2P0.8,Eu1Fe1.2As2P0.8,"{'As': 2.0, 'Eu': 1.0, 'Fe': 1.2, 'P': 0.8}",21.5,21.5,0.0,1,Eu1 Fe1.2 As2 P0.8
1741,[24160],Eu1Fe1.4As2P0.6,Eu1Fe1.4As2P0.6,"{'As': 2.0, 'Eu': 1.0, 'Fe': 1.4, 'P': 0.6000000000000001}",28.7,28.7,0.0,1,Eu1 Fe1.4 As2 P0.6
1742,[22615],Eu1Fe1.5Ru0.5As2,Eu1Fe1.5Ru0.5As2,"{'As': 2.0, 'Eu': 1.0, 'Fe': 1.5, 'Ru': 0.5}",21.5,21.5,0.0,1,Eu1 Fe1.5 Ru0.5 As2
1743,[24159],Eu1Fe1.6As2P0.4,Eu1Fe1.6As2P0.4,"{'As': 2.0, 'Eu': 1.0, 'Fe': 1.6, 'P': 0.4}",23.5,23.5,0.0,1,Eu1 Fe1.6 As2 P0.4
1744,"[24006, 24163, 24319]",Eu1Fe1.72Ir0.28As2,Eu1Fe1.72Ir0.28As2,"{'As': 2.0, 'Eu': 1.0, 'Fe': 1.72, 'Ir': 0.28}",21.9,21.6666666667,0.16996731710000001,3,Eu1 Fe1.72 Ir0.28 As2
1745,[24162],Eu1Fe1.78Ir0.22As2,Eu1Fe1.78Ir0.22As2,"{'As': 2.0, 'Eu': 1.0, 'Fe': 1.78, 'Ir': 0.22}",21.0,21.0,0.0,1,Eu1 Fe1.78 Ir0.22 As2
1746,[25366],Eu1Fe1.82Ir0.18As2,Eu1Fe1.82Ir0.18As2,"{'As': 2.0, 'Eu': 1.0, 'Fe': 1.82, 'Ir': 0.18}",19.95,19.95,0.0,1,Eu1 Fe1.82 Ir0.18 As2
1747,"[25367, 25377, 25378, 25379]",Eu1Fe1.86Rh0.14As2,Eu1Fe1.86Rh0.14As2,"{'As': 2.0, 'Eu': 1.0, 'Fe': 1.8599999999999999, 'Rh': 0.14}",14.35,13.0375,0.7577722283,4,Eu1 Fe1.86 Rh0.14 As2
1748,"[20589, 21138, 22224, 22408, 23429, 23547, 26003]",Eu1Fe2As2,Eu1Fe2As2,"{'As': 2.0, 'Eu': 1.0, 'Fe': 2.0}",31.0,28.6428571429,1.8653664081999999,7,Eu1 Fe2 As2
1749,[23575],Gd4Fe2As2Te0.92F0.8O3.2,Gd4Fe2As2Te0.92F0.8O3.2,"{'As': 2.0, 'F': 0.8, 'Fe': 2.0, 'Gd': 4.0, 'O': 3.2, 'Te': 0.92}",45.0,45.0,0.0,1,Gd4 Fe2 As2 Te0.92 F0.8 O3.2
1750,[23574],Sm4Fe2As2Te0.72F1.2O2.8,Sm4Fe2As2Te0.72F1.2O2.8,"{'As': 2.0, 'F': 1.2, 'Fe': 2.0, 'O': 2.8, 'Sm': 4.0, 'Te': 0.72}",40.0,40.0,0.0,1,Sm4 Fe2 As2 Te0.72 F1.2 O2.8
1751,[22726],Sr1Fe1.2Ru0.8As2,Sr1Fe1.2Ru0.8As2,"{'As': 2.0, 'Fe': 1.2, 'Ru': 0.8, 'Sr': 1.0}",17.2,17.2,0.0,1,Sr1 Fe1.2 Ru0.8 As2
1752,"[21292, 22725]",Sr1Fe1.3Ru0.7As2,Sr1Fe1.3Ru0.7As2,"{'As': 2.0, 'Fe': 1.3, 'Ru': 0.7000000000000001, 'Sr': 1.0}",20.1,16.8,3.3,2,Sr1 Fe1.3 Ru0.7 As2
1753,[22724],Sr1Fe1.4Ru0.6As2,Sr1Fe1.4Ru0.6As2,"{'As': 2.0, 'Fe': 1.4, 'Ru': 0.6000000000000001, 'Sr': 1.0}",19.8,19.8,0.0,1,Sr1 Fe1.4 Ru0.6 As2
1754,"[21291, 22723]",Sr1Fe1.5Ru0.5As2,Sr1Fe1.5Ru0.5As2,"{'As': 2.0, 'Fe': 1.5, 'Ru': 0.5, 'Sr': 1.0}",13.5,10.25,3.25,2,Sr1 Fe1.5 Ru0.5 As2
1755,[21204],Sr1Fe1.57Ir0.43As2,Sr1Fe1.57Ir0.43As2,"{'As': 2.0, 'Fe': 1.57, 'Ir': 0.43, 'Sr': 1.0}",24.2,24.2,0.0,1,Sr1 Fe1.57 Ir0.43 As2
1756,[22718],Sr1Fe1.6Pt0.4As2,Sr1Fe1.6Pt0.4As2,"{'As': 2.0, 'Fe': 1.6, 'Pt': 0.4, 'Sr': 1.0}",7.0,7.0,0.0,1,Sr1 Fe1.6 Pt0.4 As2
1757,[22717],Sr1Fe1.7Pt0.3As2,Sr1Fe1.7Pt0.3As2,"{'As': 2.0, 'Fe': 1.7000000000000002, 'Pt': 0.30000000000000004, 'Sr': 1.0}",12.6,12.6,0.0,1,Sr1 Fe1.7 Pt0.3 As2
1758,[22722],Sr1Fe1.75Pt0.25As2,Sr1Fe1.75Pt0.25As2,"{'As': 2.0, 'Fe': 1.75, 'Pt': 0.25, 'Sr': 1.0}",16.3,16.3,0.0,1,Sr1 Fe1.75 Pt0.25 As2
1759,[21203],Sr1Fe1.75Rh0.25As2,Sr1Fe1.75Rh0.25As2,"{'As': 2.0, 'Fe': 1.75, 'Rh': 0.25, 'Sr': 1.0}",21.9,21.9,0.0,1,Sr1 Fe1.75 Rh0.25 As2
1760,"[21422, 21431]",Sr1Fe1.78Ni0.22As2,Sr1Fe1.78Ni0.22As2,"{'As': 2.0, 'Fe': 1.78, 'Ni': 0.22, 'Sr': 1.0}",2.34,2.305,0.035,2,Sr1 Fe1.78 Ni0.22 As2
1761,[21421],Sr1Fe1.8Ni0.2As2,Sr1Fe1.8Ni0.2As2,"{'As': 2.0, 'Fe': 1.8, 'Ni': 0.2, 'Sr': 1.0}",7.4,7.4,0.0,1,Sr1 Fe1.8 Ni0.2 As2
1762,[22716],Sr1Fe1.8Pt0.2As2,Sr1Fe1.8Pt0.2As2,"{'As': 2.0, 'Fe': 1.8, 'Pt': 0.2, 'Sr': 1.0}",15.8,15.8,0.0,1,Sr1 Fe1.8 Pt0.2 As2
1763,[21430],Sr1Fe1.82Ni0.18As2,Sr1Fe1.82Ni0.18As2,"{'As': 2.0, 'Fe': 1.82, 'Ni': 0.18, 'Sr': 1.0}",9.6,9.6,0.0,1,Sr1 Fe1.82 Ni0.18 As2
1764,[21420],Sr1Fe1.84Ni0.16As2,Sr1Fe1.84Ni0.16As2,"{'As': 2.0, 'Fe': 1.8399999999999999, 'Ni': 0.16, 'Sr': 1.0}",8.65,8.65,0.0,1,Sr1 Fe1.84 Ni0.16 As2
1765,[21929],Sr1Fe1.84Pt0.16As2,Sr1Fe1.84Pt0.16As2,"{'As': 2.0, 'Fe': 1.8399999999999999, 'Pt': 0.16, 'Sr': 1.0}",16.0,16.0,0.0,1,Sr1 Fe1.84 Pt0.16 As2
1766,"[21429, 22072]",Sr1Fe1.85Ni0.15As2,Sr1Fe1.85Ni0.15As2,"{'As': 2.0, 'Fe': 1.85, 'Ni': 0.15, 'Sr': 1.0}",9.2,8.93,0.27,2,Sr1 Fe1.85 Ni0.15 As2
1767,[21205],Sr1Fe1.85Pd0.15As2,Sr1Fe1.85Pd0.15As2,"{'As': 2.0, 'Fe': 1.85, 'Pd': 0.15, 'Sr': 1.0}",8.7,8.7,0.0,1,Sr1 Fe1.85 Pd0.15 As2
1768,[22715],Sr1Fe1.85Pt0.15As2,Sr1Fe1.85Pt0.15As2,"{'As': 2.0, 'Fe': 1.85, 'Pt': 0.15, 'Sr': 1.0}",11.7,11.7,0.0,1,Sr1 Fe1.85 Pt0.15 As2
1769,"[21419, 21428]",Sr1Fe1.88Ni0.12As2,Sr1Fe1.88Ni0.12As2,"{'As': 2.0, 'Fe': 1.88, 'Ni': 0.12, 'Sr': 1.0}",8.1,5.92,2.18,2,Sr1 Fe1.88 Ni0.12 As2
1770,[21427],Sr1Fe1.9Ni0.1As2,Sr1Fe1.9Ni0.1As2,"{'As': 2.0, 'Fe': 1.9, 'Ni': 0.1, 'Sr': 1.0}",5.5,5.5,0.0,1,Sr1 Fe1.9 Ni0.1 As2
1771,[22714],Sr1Fe1.9Pt0.1As2,Sr1Fe1.9Pt0.1As2,"{'As': 2.0, 'Fe': 1.9, 'Pt': 0.1, 'Sr': 1.0}",1.6,1.6,0.0,1,Sr1 Fe1.9 Pt0.1 As2
1772,[23573],Gd4Fe2As2Te0.9O4,Gd4Fe2As2Te0.9O4,"{'As': 2.0, 'Fe': 2.0, 'Gd': 4.0, 'O': 4.0, 'Te': 0.9}",25.0,25.0,0.0,1,Gd4 Fe2 As2 Te0.9 O4
1773,[21053],Sr0.9K0.1Fe2As2,Sr0.9K0.1Fe2As2,"{'As': 2.0, 'Fe': 2.0, 'K': 0.1, 'Sr': 0.9}",5.11,5.11,0.0,1,Sr0.9 K0.1 Fe2 As2
1774,"[20843, 21050]",K0.2Sr0.8Fe2As2,K0.2Sr0.8Fe2As2,"{'As': 2.0, 'Fe': 2.0, 'K': 0.2, 'Sr': 0.8}",13.6,13.3,0.30000000000000004,2,K0.2 Sr0.8 Fe2 As2
1775,[21052],Sr0.67K0.33Fe2As2,Sr0.67K0.33Fe2As2,"{'As': 2.0, 'Fe': 2.0, 'K': 0.33, 'Sr': 0.67}",21.7,21.7,0.0,1,Sr0.67 K0.33 Fe2 As2
1776,"[20566, 20567, 20663, 20844, 20857]",Sr0.6K0.4Fe2As2,Sr0.6K0.4Fe2As2,"{'As': 2.0, 'Fe': 2.0, 'K': 0.4, 'Sr': 0.6000000000000001}",38.0,33.32,6.7118998801,5,Sr0.6 K0.4 Fe2 As2
1777,[21054],Sr0.5K0.5Fe2As2,Sr0.5K0.5Fe2As2,"{'As': 2.0, 'Fe': 2.0, 'K': 0.5, 'Sr': 0.5}",37.7,37.7,0.0,1,Sr0.5 K0.5 Fe2 As2
1778,[21051],Sr0.42K0.58Fe2As2,Sr0.42K0.58Fe2As2,"{'As': 2.0, 'Fe': 2.0, 'K': 0.58, 'Sr': 0.42}",36.0,36.0,0.0,1,Sr0.42 K0.58 Fe2 As2
1779,[20845],K0.7Sr0.3Fe2As2,K0.7Sr0.3Fe2As2,"{'As': 2.0, 'Fe': 2.0, 'K': 0.7000000000000001, 'Sr': 0.30000000000000004}",12.2,12.2,0.0,1,K0.7 Sr0.3 Fe2 As2
1780,[23376],K0.9Na0.1Fe2As2,K0.9Na0.1Fe2As2,"{'As': 2.0, 'Fe': 2.0, 'K': 0.9, 'Na': 0.1}",2.9,2.9,0.0,1,K0.9 Na0.1 Fe2 As2
1781,"[20662, 22340, 22342, 22343, 23014, 23104, 23108, 23236, 23375, 24263, 24265, 24266, 24268, 24352, 24521, 24522, 24952, 25055]",K1Fe2As2,K1Fe2As2,"{'As': 2.0, 'Fe': 2.0, 'K': 1.0}",3.94,3.4225,0.33501347400000003,18,K1 Fe2 As2
1782,[26082],La0.15Na0.85Fe2As2,La0.15Na0.85Fe2As2,"{'As': 2.0, 'Fe': 2.0, 'La': 0.15, 'Na': 0.85}",26.0,26.0,0.0,1,La0.15 Na0.85 Fe2 As2
1783,"[26076, 26081]",La0.2Na0.8Fe2As2,La0.2Na0.8Fe2As2,"{'As': 2.0, 'Fe': 2.0, 'La': 0.2, 'Na': 0.8}",27.0,27.0,0.0,2,La0.2 Na0.8 Fe2 As2
1784,[26080],La0.3Na0.7Fe2As2,La0.3Na0.7Fe2As2,"{'As': 2.0, 'Fe': 2.0, 'La': 0.30000000000000004, 'Na': 0.7000000000000001}",22.1,22.1,0.0,1,La0.3 Na0.7 Fe2 As2
1785,[26038],La0.34Na0.66Fe2As2,La0.34Na0.66Fe2As2,"{'As': 2.0, 'Fe': 2.0, 'La': 0.34, 'Na': 0.66}",27.0,27.0,0.0,1,La0.34 Na0.66 Fe2 As2
1786,[22012],Sr0.6La0.4Fe2As2,Sr0.6La0.4Fe2As2,"{'As': 2.0, 'Fe': 2.0, 'La': 0.4, 'Sr': 0.6000000000000001}",20.5,20.5,0.0,1,Sr0.6 La0.4 Fe2 As2
1787,"[26075, 26078, 26079]",La1Fe2As2,La1Fe2As2,"{'As': 2.0, 'Fe': 2.0, 'La': 1.0}",12.2,9.6666666667,1.9686430747,3,La1 Fe2 As2
1788,[22190],Fe2As2Sr4Mg0.4Ti1.6O6,Fe2As2Sr4Mg0.4Ti1.6O6,"{'As': 2.0, 'Fe': 2.0, 'Mg': 0.4, 'O': 6.0, 'Sr': 4.0, 'Ti': 1.6}",28.0,28.0,0.0,1,Fe2 As2 Sr4 Mg0.4 Ti1.6 O6
1789,[22189],Fe2As2Sr4Mg0.6Ti1.4O6,Fe2As2Sr4Mg0.6Ti1.4O6,"{'As': 2.0, 'Fe': 2.0, 'Mg': 0.6000000000000001, 'O': 6.0, 'Sr': 4.0, 'Ti': 1.4}",29.0,29.0,0.0,1,Fe2 As2 Sr4 Mg0.6 Ti1.4 O6
1790,[22188],Fe2As2Sr4Mg0.8Ti1.2O6,Fe2As2Sr4Mg0.8Ti1.2O6,"{'As': 2.0, 'Fe': 2.0, 'Mg': 0.8, 'O': 6.0, 'Sr': 4.0, 'Ti': 1.2}",26.0,26.0,0.0,1,Fe2 As2 Sr4 Mg0.8 Ti1.2 O6
1791,[22187],Fe2As2Sr4Mg0.9Ti1.1O6,Fe2As2Sr4Mg0.9Ti1.1O6,"{'As': 2.0, 'Fe': 2.0, 'Mg': 0.9, 'O': 6.0, 'Sr': 4.0, 'Ti': 1.1}",23.5,23.5,0.0,1,Fe2 As2 Sr4 Mg0.9 Ti1.1 O6
1792,[22191],Fe2As2Sr4Mg1Ti1O6,Fe2As2Sr4Mg1Ti1O6,"{'As': 2.0, 'Fe': 2.0, 'Mg': 1.0, 'O': 6.0, 'Sr': 4.0, 'Ti': 1.0}",6.0,6.0,0.0,1,Fe2 As2 Sr4 Mg1 Ti1 O6
1793,"[23287, 23571]",Pr4Fe2As2Te0.88O4,Pr4Fe2As2Te0.88O4,"{'As': 2.0, 'Fe': 2.0, 'O': 4.0, 'Pr': 4.0, 'Te': 0.88}",25.1,25.05,0.05,2,Pr4 Fe2 As2 Te0.88 O4
1794,[23572],Sm4Fe2As2Te0.92O4,Sm4Fe2As2Te0.92O4,"{'As': 2.0, 'Fe': 2.0, 'O': 4.0, 'Sm': 4.0, 'Te': 0.92}",25.0,25.0,0.0,1,Sm4 Fe2 As2 Te0.92 O4
1795,"[21026, 22805]",Sr4V2Fe2As2O6,Sr4V2Fe2As2O6,"{'As': 2.0, 'Fe': 2.0, 'O': 6.0, 'Sr': 4.0, 'V': 2.0}",31.5,29.25,2.25,2,Sr4 V2 Fe2 As2 O6
1796,[22413],Fe2As2Sr4Sc1.5Ti1.5O8,Fe2As2Sr4Sc1.5Ti1.5O8,"{'As': 2.0, 'Fe': 2.0, 'O': 8.0, 'Sc': 1.5, 'Sr': 4.0, 'Ti': 1.5}",22.0,22.0,0.0,1,Fe2 As2 Sr4 Sc1.5 Ti1.5 O8
1797,[22412],Fe2As2Sr4Sc1.8Ti1.2O8,Fe2As2Sr4Sc1.8Ti1.2O8,"{'As': 2.0, 'Fe': 2.0, 'O': 8.0, 'Sc': 1.8, 'Sr': 4.0, 'Ti': 1.2}",28.0,28.0,0.0,1,Fe2 As2 Sr4 Sc1.8 Ti1.2 O8
1798,"[21930, 22056, 23249, 23250, 24264]",Rb1Fe2As2,Rb1Fe2As2,"{'As': 2.0, 'Fe': 2.0, 'Rb': 1.0}",2.6,2.38,0.326741488,5,Rb1 Fe2 As2
1799,"[20809, 20810, 20926, 21135, 21185, 21215, 21240]",Sr1Fe2As2,Sr1Fe2As2,"{'As': 2.0, 'Fe': 2.0, 'Sr': 1.0}",38.0,27.4857142857,5.0912890794,7,Sr1 Fe2 As2
1800,[22075],Sr1Ir2As2,Sr1Ir2As2,"{'As': 2.0, 'Ir': 2.0, 'Sr': 1.0}",2.8,2.8,0.0,1,Sr1 Ir2 As2
1801,[24143],La1Pd2As2,La1Pd2As2,"{'As': 2.0, 'La': 1.0, 'Pd': 2.0}",0.97,0.97,0.0,1,La1 Pd2 As2
1802,[25120],La1Ru2As2,La1Ru2As2,"{'As': 2.0, 'La': 1.0, 'Ru': 2.0}",7.0,7.0,0.0,1,La1 Ru2 As2
1803,[12918],As2Mo1,As2Mo1,"{'As': 2.0, 'Mo': 1.0}",0.41000000000000003,0.41000000000000003,0.0,1,As2 Mo1
1804,"[25432, 25645, 25830]",Na1Sn2As2,Na1Sn2As2,"{'As': 2.0, 'Na': 1.0, 'Sn': 2.0}",1.54,1.3066666667,0.16519348920000002,3,Na1 Sn2 As2
1805,"[22186, 22586]",Ni2As2Sr4Sc2O6,Ni2As2Sr4Sc2O6,"{'As': 2.0, 'Ni': 2.0, 'O': 6.0, 'Sc': 2.0, 'Sr': 4.0}",2.8,2.75,0.05,2,Ni2 As2 Sr4 Sc2 O6
1806,[21615],Sr1Ni2As2,Sr1Ni2As2,"{'As': 2.0, 'Ni': 2.0, 'Sr': 1.0}",0.66,0.66,0.0,1,Sr1 Ni2 As2
1807,"[23460, 25767]",Sr1Pd2As2,Sr1Pd2As2,"{'As': 2.0, 'Pd': 2.0, 'Sr': 1.0}",0.92,0.92,0.0,2,Sr1 Pd2 As2
1808,[12920],As2Pd5,As2Pd5,"{'As': 2.0, 'Pd': 5.0}",0.46,0.46,0.0,1,As2 Pd5
1809,"[22270, 23993, 24241]",Sr1Pt2As2,Sr1Pt2As2,"{'As': 2.0, 'Pt': 2.0, 'Sr': 1.0}",5.45,5.0833333333,0.35668224270000004,3,Sr1 Pt2 As2
1810,[14894],As2Sn3,As2Sn3,"{'As': 2.0, 'Sn': 3.0}",3.5,3.5,0.0,1,As2 Sn3
1811,[18421],As2Te3,As2Te3,"{'As': 2.0, 'Te': 3.0}",4.4,4.4,0.0,1,As2 Te3
1812,[12926],As2W1,As2W1,"{'As': 2.0, 'W': 1.0}",0.9,0.9,0.0,1,As2 W1
1813,[22593],Ba1Fe2As3,Ba1Fe2As3,"{'As': 3.0, 'Ba': 1.0, 'Fe': 2.0}",35.4,35.4,0.0,1,Ba1 Fe2 As3
1814,"[24762, 24936, 25171]",Cs2Cr3As3,Cs2Cr3As3,"{'As': 3.0, 'Cr': 3.0, 'Cs': 2.0}",2.2,2.05,0.14719601440000002,3,Cs2 Cr3 As3
1815,"[25893, 25894]",K1Cr3As3,K1Cr3As3,"{'As': 3.0, 'Cr': 3.0, 'K': 1.0}",4.77,4.26,0.51,2,K1 Cr3 As3
1816,"[23982, 24548, 24744, 24750, 24751, 24752, 24832, 24853, 25093, 25831]",K2Cr3As3,K2Cr3As3,"{'As': 3.0, 'Cr': 3.0, 'K': 2.0}",6.2,6.08,0.09797958970000001,10,K2 Cr3 As3
1817,"[25829, 26106]",Rb1Cr3As3,Rb1Cr3As3,"{'As': 3.0, 'Cr': 3.0, 'Rb': 1.0}",7.17,6.6850000000000005,0.485,2,Rb1 Cr3 As3
1818,"[23981, 24375, 24833, 24854]",Rb2Cr3As3,Rb2Cr3As3,"{'As': 3.0, 'Cr': 3.0, 'Rb': 2.0}",4.8,4.8,0.0,4,Rb2 Cr3 As3
1819,[25818],K2Mo3As3,K2Mo3As3,"{'As': 3.0, 'K': 2.0, 'Mo': 3.0}",10.25,10.25,0.0,1,K2 Mo3 As3
1820,[19610],As3La4,As3La4,"{'As': 3.0, 'La': 4.0}",6.5,6.5,0.0,1,As3 La4
1821,[14489],As3Pd5,As3Pd5,"{'As': 3.0, 'Pd': 5.0}",24.761,24.761,0.0,1,As3 Pd5
1822,"[12577, 12646]",As3Sn4,As3Sn4,"{'As': 3.0, 'Sn': 4.0}",1.23,1.195,0.035,2,As3 Sn4
1823,[24786],Ba1Cs1Fe4As4,Ba1Cs1Fe4As4,"{'As': 4.0, 'Ba': 1.0, 'Cs': 1.0, 'Fe': 4.0}",26.0,26.0,0.0,1,Ba1 Cs1 Fe4 As4
1824,"[25411, 25556]",Ba2Ti2Fe1.98Cr0.02As4O1,Ba2Ti2Fe1.98Cr0.02As4O1,"{'As': 4.0, 'Ba': 2.0, 'Cr': 0.02, 'Fe': 1.98, 'O': 1.0, 'Ti': 2.0}",19.1,19.1,0.0,2,Ba2 Ti2 Fe1.98 Cr0.02 As4 O1
1825,"[25412, 25557]",Ba2Ti2Fe1.96Cr0.04As4O1,Ba2Ti2Fe1.96Cr0.04As4O1,"{'As': 4.0, 'Ba': 2.0, 'Cr': 0.04, 'Fe': 1.96, 'O': 1.0, 'Ti': 2.0}",15.7,15.7,0.0,2,Ba2 Ti2 Fe1.96 Cr0.04 As4 O1
1826,"[25413, 25558]",Ba2Ti2Fe1.94Cr0.06As4O1,Ba2Ti2Fe1.94Cr0.06As4O1,"{'As': 4.0, 'Ba': 2.0, 'Cr': 0.06, 'Fe': 1.94, 'O': 1.0, 'Ti': 2.0}",11.8,11.8,0.0,2,Ba2 Ti2 Fe1.94 Cr0.06 As4 O1
1827,"[25414, 25559]",Ba2Ti2Fe1.92Cr0.08As4O1,Ba2Ti2Fe1.92Cr0.08As4O1,"{'As': 4.0, 'Ba': 2.0, 'Cr': 0.08, 'Fe': 1.92, 'O': 1.0, 'Ti': 2.0}",8.21,8.185,0.025,2,Ba2 Ti2 Fe1.92 Cr0.08 As4 O1
1828,[25415],Ba2Ti2Fe1.9Cr0.1As4O1,Ba2Ti2Fe1.9Cr0.1As4O1,"{'As': 4.0, 'Ba': 2.0, 'Cr': 0.1, 'Fe': 1.9, 'O': 1.0, 'Ti': 2.0}",5.29,5.29,0.0,1,Ba2 Ti2 Fe1.9 Cr0.1 As4 O1
1829,[25416],Ba2Ti2Fe1.88Cr0.12As4O1,Ba2Ti2Fe1.88Cr0.12As4O1,"{'As': 4.0, 'Ba': 2.0, 'Cr': 0.12, 'Fe': 1.88, 'O': 1.0, 'Ti': 2.0}",2.89,2.89,0.0,1,Ba2 Ti2 Fe1.88 Cr0.12 As4 O1
1830,"[23966, 24117, 25410, 25555]",Ba2Ti2Fe2As4O1,Ba2Ti2Fe2As4O1,"{'As': 4.0, 'Ba': 2.0, 'Fe': 2.0, 'O': 1.0, 'Ti': 2.0}",21.5,20.5875,1.0772505512,4,Ba2 Ti2 Fe2 As4 O1
1831,[25849],Eu0.75Ca0.25Rb1Fe4As4,Eu0.75Ca0.25Rb1Fe4As4,"{'As': 4.0, 'Ca': 0.25, 'Eu': 0.75, 'Fe': 4.0, 'Rb': 1.0}",36.54,36.54,0.0,1,Eu0.75 Ca0.25 Rb1 Fe4 As4
1832,[25850],Eu0.5Ca0.5Rb1Fe4As4,Eu0.5Ca0.5Rb1Fe4As4,"{'As': 4.0, 'Ca': 0.5, 'Eu': 0.5, 'Fe': 4.0, 'Rb': 1.0}",36.49,36.49,0.0,1,Eu0.5 Ca0.5 Rb1 Fe4 As4
1833,[25851],Eu0.25Ca0.75Rb1Fe4As4,Eu0.25Ca0.75Rb1Fe4As4,"{'As': 4.0, 'Ca': 0.75, 'Eu': 0.25, 'Fe': 4.0, 'Rb': 1.0}",36.0,36.0,0.0,1,Eu0.25 Ca0.75 Rb1 Fe4 As4
1834,[24783],Ca1Cs1Fe4As4,Ca1Cs1Fe4As4,"{'As': 4.0, 'Ca': 1.0, 'Cs': 1.0, 'Fe': 4.0}",31.6,31.6,0.0,1,Ca1 Cs1 Fe4 As4
1835,[25466],Ca1K1Fe3.748Ni0.252As4,Ca1K1Fe3.748Ni0.252As4,"{'As': 4.0, 'Ca': 1.0, 'Fe': 3.748, 'K': 1.0, 'Ni': 0.252}",0.0,0.0,0.0,1,Ca1 K1 Fe3.748 Ni0.252 As4
1836,[25465],Ca1K1Fe3.804Ni0.196As4,Ca1K1Fe3.804Ni0.196As4,"{'As': 4.0, 'Ca': 1.0, 'Fe': 3.8040000000000003, 'K': 1.0, 'Ni': 0.196}",10.5,10.5,0.0,1,Ca1 K1 Fe3.804 Ni0.196 As4
1837,[26109],Ca1K1Fe3.864Ni0.136As4,Ca1K1Fe3.864Ni0.136As4,"{'As': 4.0, 'Ca': 1.0, 'Fe': 3.864, 'K': 1.0, 'Ni': 0.136}",19.3,19.3,0.0,1,Ca1 K1 Fe3.864 Ni0.136 As4
1838,[25464],Ca1K1Fe3.872Ni0.128As4,Ca1K1Fe3.872Ni0.128As4,"{'As': 4.0, 'Ca': 1.0, 'Fe': 3.872, 'K': 1.0, 'Ni': 0.128}",20.4,20.4,0.0,1,Ca1 K1 Fe3.872 Ni0.128 As4
1839,"[25463, 26108]",Ca1K1Fe3.932Ni0.068As4,Ca1K1Fe3.932Ni0.068As4,"{'As': 4.0, 'Ca': 1.0, 'Fe': 3.932, 'K': 1.0, 'Ni': 0.068}",29.3,28.75,0.55,2,Ca1 K1 Fe3.932 Ni0.068 As4
1840,"[24781, 24957, 25230, 25231, 25238, 25259, 25462, 25895, 26107, 26217]",Ca1K1Fe4As4,Ca1K1Fe4As4,"{'As': 4.0, 'Ca': 1.0, 'Fe': 4.0, 'K': 1.0}",36.0,35.067,0.8189023141,10,Ca1 K1 Fe4 As4
1841,"[24782, 25852]",Ca1Rb1Fe4As4,Ca1Rb1Fe4As4,"{'As': 4.0, 'Ca': 1.0, 'Fe': 4.0, 'Rb': 1.0}",36.26,35.63,0.63,2,Ca1 Rb1 Fe4 As4
1842,"[25502, 25806]",Cs1Ca2Fe4As4F2,Cs1Ca2Fe4As4F2,"{'As': 4.0, 'Ca': 2.0, 'Cs': 1.0, 'F': 2.0, 'Fe': 4.0}",28.31,28.255,0.055,2,Cs1 Ca2 Fe4 As4 F2
1843,"[25128, 25503, 25905, 25906, 26129]",K1Ca2Fe4As4F2,K1Ca2Fe4As4F2,"{'As': 4.0, 'Ca': 2.0, 'F': 2.0, 'Fe': 4.0, 'K': 1.0}",33.36,31.132,3.9205224142,5,K1 Ca2 Fe4 As4 F2
1844,"[25805, 25857]",Rb1Ca2Fe4As4F2,Rb1Ca2Fe4As4F2,"{'As': 4.0, 'Ca': 2.0, 'F': 2.0, 'Fe': 4.0, 'Rb': 1.0}",30.5,30.25,0.25,2,Rb1 Ca2 Fe4 As4 F2
1845,[25845],La0.4Cs0.6Rb1Fe4As4,La0.4Cs0.6Rb1Fe4As4,"{'As': 4.0, 'Cs': 0.6000000000000001, 'Fe': 4.0, 'La': 0.4, 'Rb': 1.0}",24.0,24.0,0.0,1,La0.4 Cs0.6 Rb1 Fe4 As4
1846,"[24689, 24817]",Eu1Cs1Fe4As4,Eu1Cs1Fe4As4,"{'As': 4.0, 'Cs': 1.0, 'Eu': 1.0, 'Fe': 4.0}",35.0,35.0,0.0,2,Eu1 Cs1 Fe4 As4
1847,[24785],Sr1Cs1Fe4As4,Sr1Cs1Fe4As4,"{'As': 4.0, 'Cs': 1.0, 'Fe': 4.0, 'Sr': 1.0}",36.8,36.8,0.0,1,Sr1 Cs1 Fe4 As4
1848,[25473],Rb1Eu1Fe3.68Ni0.32As4,Rb1Eu1Fe3.68Ni0.32As4,"{'As': 4.0, 'Eu': 1.0, 'Fe': 3.68, 'Ni': 0.32, 'Rb': 1.0}",2.1,2.1,0.0,1,Rb1 Eu1 Fe3.68 Ni0.32 As4
1849,[25472],Rb1Eu1Fe3.72Ni0.28As4,Rb1Eu1Fe3.72Ni0.28As4,"{'As': 4.0, 'Eu': 1.0, 'Fe': 3.7199999999999998, 'Ni': 0.28, 'Rb': 1.0}",11.2,11.2,0.0,1,Rb1 Eu1 Fe3.72 Ni0.28 As4
1850,[25471],Rb1Eu1Fe3.76Ni0.24As4,Rb1Eu1Fe3.76Ni0.24As4,"{'As': 4.0, 'Eu': 1.0, 'Fe': 3.76, 'Ni': 0.24, 'Rb': 1.0}",18.1,18.1,0.0,1,Rb1 Eu1 Fe3.76 Ni0.24 As4
1851,[25470],Rb1Eu1Fe3.8Ni0.2As4,Rb1Eu1Fe3.8Ni0.2As4,"{'As': 4.0, 'Eu': 1.0, 'Fe': 3.8, 'Ni': 0.2, 'Rb': 1.0}",23.0,23.0,0.0,1,Rb1 Eu1 Fe3.8 Ni0.2 As4
1852,[25469],Rb1Eu1Fe3.9Ni0.1As4,Rb1Eu1Fe3.9Ni0.1As4,"{'As': 4.0, 'Eu': 1.0, 'Fe': 3.9, 'Ni': 0.1, 'Rb': 1.0}",30.3,30.3,0.0,1,Rb1 Eu1 Fe3.9 Ni0.1 As4
1853,"[24688, 24816, 24858, 25468, 25678, 25748, 25751, 25769, 25772, 25848, 26212, 26213]",Eu1Rb1Fe4As4,Eu1Rb1Fe4As4,"{'As': 4.0, 'Eu': 1.0, 'Fe': 4.0, 'Rb': 1.0}",37.8,34.94625,3.760367405,12,Eu1 Rb1 Fe4 As4
1854,[25844],La0.4Na0.6Rb1Fe4As4,La0.4Na0.6Rb1Fe4As4,"{'As': 4.0, 'Fe': 4.0, 'La': 0.4, 'Na': 0.6000000000000001, 'Rb': 1.0}",25.5,25.5,0.0,1,La0.4 Na0.6 Rb1 Fe4 As4
1855,[24784],Sr1Rb1Fe4As4,Sr1Rb1Fe4As4,"{'As': 4.0, 'Fe': 4.0, 'Rb': 1.0, 'Sr': 1.0}",35.1,35.1,0.0,1,Sr1 Rb1 Fe4 As4
1856,[16500],La1Os4As12,La1Os4As12,"{'As': 12.0, 'La': 1.0, 'Os': 4.0}",3.2,3.2,0.0,1,La1 Os4 As12
1857,"[15497, 16499, 19981, 20152]",La1Ru4As12,La1Ru4As12,"{'As': 12.0, 'La': 1.0, 'Ru': 4.0}",10.3,10.3,0.0,4,La1 Ru4 As12
1858,"[15499, 20093, 20151, 23546]",Pr1Ru4As12,Pr1Ru4As12,"{'As': 12.0, 'Pr': 1.0, 'Ru': 4.0}",2.5,2.3825,0.0769334128,4,Pr1 Ru4 As12
1859,[24452],Ca0.92La0.08Fe8.6Pd4.2As18,Ca0.92La0.08Fe8.6Pd4.2As18,"{'As': 18.0, 'Ca': 0.92, 'Fe': 8.6, 'La': 0.08, 'Pd': 4.2}",13.5,13.5,0.0,1,Ca0.92 La0.08 Fe8.6 Pd4.2 As18
1860,[24043],Ca6.85Pr3.15Pt3Fe10As18,Ca6.85Pr3.15Pt3Fe10As18,"{'As': 18.0, 'Ca': 6.85, 'Fe': 10.0, 'Pr': 3.15, 'Pt': 3.0}",20.5,20.5,0.0,1,Ca6.85 Pr3.15 Pt3 Fe10 As18
1861,[24038],Ca7.16Ce2.84Pt3Fe10As18,Ca7.16Ce2.84Pt3Fe10As18,"{'As': 18.0, 'Ca': 7.16, 'Ce': 2.84, 'Fe': 10.0, 'Pt': 3.0}",18.9,18.9,0.0,1,Ca7.16 Ce2.84 Pt3 Fe10 As18
1862,[24034],Ca7.62La2.38Pt3Fe10As18,Ca7.62La2.38Pt3Fe10As18,"{'As': 18.0, 'Ca': 7.62, 'Fe': 10.0, 'La': 2.38, 'Pt': 3.0}",26.0,26.0,0.0,1,Ca7.62 La2.38 Pt3 Fe10 As18
1863,[24046],Ca7.65Nd2.35Pt3Fe10As18,Ca7.65Nd2.35Pt3Fe10As18,"{'As': 18.0, 'Ca': 7.65, 'Fe': 10.0, 'Nd': 2.35, 'Pt': 3.0}",18.9,18.9,0.0,1,Ca7.65 Nd2.35 Pt3 Fe10 As18
1864,[23087],Ca8La2Pt3.3Fe9.7As18,Ca8La2Pt3.3Fe9.7As18,"{'As': 18.0, 'Ca': 8.0, 'Fe': 9.7, 'La': 2.0, 'Pt': 3.3}",29.4,29.4,0.0,1,Ca8 La2 Pt3.3 Fe9.7 As18
1865,[24042],Ca8.03Pr1.97Pt3Fe10As18,Ca8.03Pr1.97Pt3Fe10As18,"{'As': 18.0, 'Ca': 8.03, 'Fe': 10.0, 'Pr': 1.97, 'Pt': 3.0}",25.0,25.0,0.0,1,Ca8.03 Pr1.97 Pt3 Fe10 As18
1866,[23073],Ca8.18La1.82Pt3Fe10As18,Ca8.18La1.82Pt3Fe10As18,"{'As': 18.0, 'Ca': 8.18, 'Fe': 10.0, 'La': 1.82, 'Pt': 3.0}",22.1,22.1,0.0,1,Ca8.18 La1.82 Pt3 Fe10 As18
1867,[25401],Ca8.2La1.8Pt3Fe10As18,Ca8.2La1.8Pt3Fe10As18,"{'As': 18.0, 'Ca': 8.2, 'Fe': 10.0, 'La': 1.8, 'Pt': 3.0}",21.9,21.9,0.0,1,Ca8.2 La1.8 Pt3 Fe10 As18
1868,[24037],Ca8.32Ce1.68Pt3Fe10As18,Ca8.32Ce1.68Pt3Fe10As18,"{'As': 18.0, 'Ca': 8.32, 'Ce': 1.6800000000000002, 'Fe': 10.0, 'Pt': 3.0}",30.4,30.4,0.0,1,Ca8.32 Ce1.68 Pt3 Fe10 As18
1869,[24036],Ca8.38Ce1.62Pt3Fe10As18,Ca8.38Ce1.62Pt3Fe10As18,"{'As': 18.0, 'Ca': 8.38, 'Ce': 1.62, 'Fe': 10.0, 'Pt': 3.0}",30.5,30.5,0.0,1,Ca8.38 Ce1.62 Pt3 Fe10 As18
1870,[24045],Ca8.41Nd1.59Pt3Fe10As18,Ca8.41Nd1.59Pt3Fe10As18,"{'As': 18.0, 'Ca': 8.41, 'Fe': 10.0, 'Nd': 1.5899999999999999, 'Pt': 3.0}",28.1,28.1,0.0,1,Ca8.41 Nd1.59 Pt3 Fe10 As18