,sc_id,supercon_formula,cleaned_formula,material_dict,highest_Tc,average_Tc,std_Tc,entry_count,composition
5717,"[96, 295, 322, 332, 342, 1040, 1041, 1543, 1547, 1615, 1618, 1679, 1768, 1883, 1908, 2426, 2857, 2919, 2971, 3087, 3300, 3874, 4206, 4678, 7738, 8075, 8154, 8440, 9213, 10074, 10557, 22575]",Gd1Ba2Cu3O7-Y,Gd1Ba2Cu3O7,"{'Ba': 2.0, 'Cu': 3.0, 'Gd': 1.0, 'O': 7.0}",96.2,90.1796875,8.7686930627,32,Gd1 Ba2 Cu3 O7
5718,[151],Gd1Ba2Cu3O7.08,Gd1Ba2Cu3O7.08,"{'Ba': 2.0, 'Cu': 3.0, 'Gd': 1.0, 'O': 7.08}",93.8,93.8,0.0,1,Gd1 Ba2 Cu3 O7.08
5719,[4631],Y1Ba2Cu3H0.06O6.91,Y1Ba2Cu3H0.06O6.91,"{'Ba': 2.0, 'Cu': 3.0, 'H': 0.06, 'O': 6.91, 'Y': 1.0}",92.8,92.8,0.0,1,Y1 Ba2 Cu3 H0.06 O6.91
5720,[7517],Y1Ba2Cu3H0.08O7,Y1Ba2Cu3H0.08O7,"{'Ba': 2.0, 'Cu': 3.0, 'H': 0.08, 'O': 7.0, 'Y': 1.0}",88.0,88.0,0.0,1,Y1 Ba2 Cu3 H0.08 O7
5721,[6094],Y1Ba2Cu3H0.1O6.765,Y1Ba2Cu3H0.1O6.765,"{'Ba': 2.0, 'Cu': 3.0, 'H': 0.1, 'O': 6.765, 'Y': 1.0}",73.0,73.0,0.0,1,Y1 Ba2 Cu3 H0.1 O6.765
5722,[6097],Y1Ba2Cu3H0.1O6.795,Y1Ba2Cu3H0.1O6.795,"{'Ba': 2.0, 'Cu': 3.0, 'H': 0.1, 'O': 6.795, 'Y': 1.0}",75.0,75.0,0.0,1,Y1 Ba2 Cu3 H0.1 O6.795
5723,[2286],Y1Ba2Cu3H0.13O7,Y1Ba2Cu3H0.13O7,"{'Ba': 2.0, 'Cu': 3.0, 'H': 0.13, 'O': 7.0, 'Y': 1.0}",93.5,93.5,0.0,1,Y1 Ba2 Cu3 H0.13 O7
5724,[4582],Y1Ba2Cu3H0.14O6.91,Y1Ba2Cu3H0.14O6.91,"{'Ba': 2.0, 'Cu': 3.0, 'H': 0.14, 'O': 6.91, 'Y': 1.0}",90.95,90.95,0.0,1,Y1 Ba2 Cu3 H0.14 O6.91
5725,[146],Y1Ba2Cu3H0.14O7,Y1Ba2Cu3H0.14O7,"{'Ba': 2.0, 'Cu': 3.0, 'H': 0.14, 'O': 7.0, 'Y': 1.0}",92.5,92.5,0.0,1,Y1 Ba2 Cu3 H0.14 O7
5726,[4586],Y1Ba2Cu3H0.16O6.54,Y1Ba2Cu3H0.16O6.54,"{'Ba': 2.0, 'Cu': 3.0, 'H': 0.16, 'O': 6.54, 'Y': 1.0}",47.9,47.9,0.0,1,Y1 Ba2 Cu3 H0.16 O6.54
5727,[2287],Y1Ba2Cu3H0.19O7,Y1Ba2Cu3H0.19O7,"{'Ba': 2.0, 'Cu': 3.0, 'H': 0.19, 'O': 7.0, 'Y': 1.0}",93.5,93.5,0.0,1,Y1 Ba2 Cu3 H0.19 O7
5728,[6098],Y1Ba2Cu3H0.2O6.795,Y1Ba2Cu3H0.2O6.795,"{'Ba': 2.0, 'Cu': 3.0, 'H': 0.2, 'O': 6.795, 'Y': 1.0}",72.5,72.5,0.0,1,Y1 Ba2 Cu3 H0.2 O6.795
5729,[3955],Y1Ba2Cu3H0.2O6.98,Y1Ba2Cu3H0.2O6.98,"{'Ba': 2.0, 'Cu': 3.0, 'H': 0.2, 'O': 6.98, 'Y': 1.0}",94.5,94.5,0.0,1,Y1 Ba2 Cu3 H0.2 O6.98
5730,[2831],Y1Ba2Cu3H0.2O7-Z,Y1Ba2Cu3H0.2O7,"{'Ba': 2.0, 'Cu': 3.0, 'H': 0.2, 'O': 7.0, 'Y': 1.0}",92.0,92.0,0.0,1,Y1 Ba2 Cu3 H0.2 O7
5731,[7518],Y1Ba2Cu3H0.21O7,Y1Ba2Cu3H0.21O7,"{'Ba': 2.0, 'Cu': 3.0, 'H': 0.21, 'O': 7.0, 'Y': 1.0}",86.0,86.0,0.0,1,Y1 Ba2 Cu3 H0.21 O7
5732,[6095],Y1Ba2Cu3H0.24O6.765,Y1Ba2Cu3H0.24O6.765,"{'Ba': 2.0, 'Cu': 3.0, 'H': 0.24, 'O': 6.765, 'Y': 1.0}",68.0,68.0,0.0,1,Y1 Ba2 Cu3 H0.24 O6.765
5733,[4632],Y1Ba2Cu3H0.27O6.91,Y1Ba2Cu3H0.27O6.91,"{'Ba': 2.0, 'Cu': 3.0, 'H': 0.27, 'O': 6.91, 'Y': 1.0}",91.1,91.1,0.0,1,Y1 Ba2 Cu3 H0.27 O6.91
5734,[4587],Y1Ba2Cu3H0.31O6.54,Y1Ba2Cu3H0.31O6.54,"{'Ba': 2.0, 'Cu': 3.0, 'H': 0.31, 'O': 6.54, 'Y': 1.0}",47.3,47.3,0.0,1,Y1 Ba2 Cu3 H0.31 O6.54
5735,[4583],Y1Ba2Cu3H0.32O6.91,Y1Ba2Cu3H0.32O6.91,"{'Ba': 2.0, 'Cu': 3.0, 'H': 0.32, 'O': 6.91, 'Y': 1.0}",91.25,91.25,0.0,1,Y1 Ba2 Cu3 H0.32 O6.91
5736,[7519],Y1Ba2Cu3H0.34O7,Y1Ba2Cu3H0.34O7,"{'Ba': 2.0, 'Cu': 3.0, 'H': 0.34, 'O': 7.0, 'Y': 1.0}",66.0,66.0,0.0,1,Y1 Ba2 Cu3 H0.34 O7
5737,[2288],Y1Ba2Cu3H0.38O7,Y1Ba2Cu3H0.38O7,"{'Ba': 2.0, 'Cu': 3.0, 'H': 0.38, 'O': 7.0, 'Y': 1.0}",93.8,93.8,0.0,1,Y1 Ba2 Cu3 H0.38 O7
5738,"[147, 7520]",Y1Ba2Cu3H0.48O7,Y1Ba2Cu3H0.48O7,"{'Ba': 2.0, 'Cu': 3.0, 'H': 0.48, 'O': 7.0, 'Y': 1.0}",93.6,70.8,22.8,2,Y1 Ba2 Cu3 H0.48 O7
5739,[2289],Y1Ba2Cu3H0.49O7,Y1Ba2Cu3H0.49O7,"{'Ba': 2.0, 'Cu': 3.0, 'H': 0.49, 'O': 7.0, 'Y': 1.0}",93.6,93.6,0.0,1,Y1 Ba2 Cu3 H0.49 O7
5740,[4633],Y1Ba2Cu3H0.52O6.91,Y1Ba2Cu3H0.52O6.91,"{'Ba': 2.0, 'Cu': 3.0, 'H': 0.52, 'O': 6.91, 'Y': 1.0}",91.7,91.7,0.0,1,Y1 Ba2 Cu3 H0.52 O6.91
5741,[4588],Y1Ba2Cu3H0.53O6.54,Y1Ba2Cu3H0.53O6.54,"{'Ba': 2.0, 'Cu': 3.0, 'H': 0.53, 'O': 6.54, 'Y': 1.0}",43.8,43.8,0.0,1,Y1 Ba2 Cu3 H0.53 O6.54
5742,[4590],Y1Ba2Cu3H0.6O6.91,Y1Ba2Cu3H0.6O6.91,"{'Ba': 2.0, 'Cu': 3.0, 'H': 0.6000000000000001, 'O': 6.91, 'Y': 1.0}",86.5,86.5,0.0,1,Y1 Ba2 Cu3 H0.6 O6.91
5743,[4589],Y1Ba2Cu3H0.64O6.54,Y1Ba2Cu3H0.64O6.54,"{'Ba': 2.0, 'Cu': 3.0, 'H': 0.64, 'O': 6.54, 'Y': 1.0}",42.05,42.05,0.0,1,Y1 Ba2 Cu3 H0.64 O6.54
5744,[4591],Y1Ba2Cu3H0.69O6.91,Y1Ba2Cu3H0.69O6.91,"{'Ba': 2.0, 'Cu': 3.0, 'H': 0.6900000000000001, 'O': 6.91, 'Y': 1.0}",85.7,85.7,0.0,1,Y1 Ba2 Cu3 H0.69 O6.91
5745,[4634],Y1Ba2Cu3H0.91O6.91,Y1Ba2Cu3H0.91O6.91,"{'Ba': 2.0, 'Cu': 3.0, 'H': 0.91, 'O': 6.91, 'Y': 1.0}",91.4,91.4,0.0,1,Y1 Ba2 Cu3 H0.91 O6.91
5746,[4592],Y1Ba2Cu3H0.92O6.91,Y1Ba2Cu3H0.92O6.91,"{'Ba': 2.0, 'Cu': 3.0, 'H': 0.92, 'O': 6.91, 'Y': 1.0}",80.8,80.8,0.0,1,Y1 Ba2 Cu3 H0.92 O6.91
5747,"[148, 328, 329]",Y1Ba2Cu3H1O7,Y1Ba2Cu3H1O7,"{'Ba': 2.0, 'Cu': 3.0, 'H': 1.0, 'O': 7.0, 'Y': 1.0}",93.2,75.4166666667,22.923944299,3,Y1 Ba2 Cu3 H1 O7
5748,[4584],Y1Ba2Cu3H1.15O6.91,Y1Ba2Cu3H1.15O6.91,"{'Ba': 2.0, 'Cu': 3.0, 'H': 1.15, 'O': 6.91, 'Y': 1.0}",76.7,76.7,0.0,1,Y1 Ba2 Cu3 H1.15 O6.91
5749,[3956],Y1Ba2Cu3H1.4O6.98,Y1Ba2Cu3H1.4O6.98,"{'Ba': 2.0, 'Cu': 3.0, 'H': 1.4, 'O': 6.98, 'Y': 1.0}",92.0,92.0,0.0,1,Y1 Ba2 Cu3 H1.4 O6.98
5750,[992],Y0.9Ho0.1Ba2Cu3O7-Z,Y0.9Ho0.1Ba2Cu3O7,"{'Ba': 2.0, 'Cu': 3.0, 'Ho': 0.1, 'O': 7.0, 'Y': 0.9}",60.0,60.0,0.0,1,Y0.9 Ho0.1 Ba2 Cu3 O7
5751,[6449],Ho0.43Pr0.57Ba2Cu3O7-Z,Ho0.43Pr0.57Ba2Cu3O7,"{'Ba': 2.0, 'Cu': 3.0, 'Ho': 0.43, 'O': 7.0, 'Pr': 0.5700000000000001}",9.51,9.51,0.0,1,Ho0.43 Pr0.57 Ba2 Cu3 O7
5752,[6448],Ho0.45Pr0.55Ba2Cu3O7-Z,Ho0.45Pr0.55Ba2Cu3O7,"{'Ba': 2.0, 'Cu': 3.0, 'Ho': 0.45, 'O': 7.0, 'Pr': 0.55}",20.7,20.7,0.0,1,Ho0.45 Pr0.55 Ba2 Cu3 O7
5753,[6447],Ho0.48Pr0.52Ba2Cu3O7-Z,Ho0.48Pr0.52Ba2Cu3O7,"{'Ba': 2.0, 'Cu': 3.0, 'Ho': 0.48, 'O': 7.0, 'Pr': 0.52}",25.8,25.8,0.0,1,Ho0.48 Pr0.52 Ba2 Cu3 O7
5754,[2723],Ho0.5Pr0.5Ba2Cu3O6.67,Ho0.5Pr0.5Ba2Cu3O6.67,"{'Ba': 2.0, 'Cu': 3.0, 'Ho': 0.5, 'O': 6.67, 'Pr': 0.5}",24.3,24.3,0.0,1,Ho0.5 Pr0.5 Ba2 Cu3 O6.67
5755,[6446],Ho0.5Pr0.5Ba2Cu3O7-Z,Ho0.5Pr0.5Ba2Cu3O7,"{'Ba': 2.0, 'Cu': 3.0, 'Ho': 0.5, 'O': 7.0, 'Pr': 0.5}",28.3,28.3,0.0,1,Ho0.5 Pr0.5 Ba2 Cu3 O7
5756,[6445],Ho0.55Pr0.45Ba2Cu3O7-Z,Ho0.55Pr0.45Ba2Cu3O7,"{'Ba': 2.0, 'Cu': 3.0, 'Ho': 0.55, 'O': 7.0, 'Pr': 0.45}",39.8,39.8,0.0,1,Ho0.55 Pr0.45 Ba2 Cu3 O7
5757,[6444],Ho0.6Pr0.4Ba2Cu3O7-Z,Ho0.6Pr0.4Ba2Cu3O7,"{'Ba': 2.0, 'Cu': 3.0, 'Ho': 0.6000000000000001, 'O': 7.0, 'Pr': 0.4}",44.0,44.0,0.0,1,Ho0.6 Pr0.4 Ba2 Cu3 O7
5758,[6443],Ho0.65Pr0.35Ba2Cu3O7-Z,Ho0.65Pr0.35Ba2Cu3O7,"{'Ba': 2.0, 'Cu': 3.0, 'Ho': 0.65, 'O': 7.0, 'Pr': 0.35000000000000003}",53.4,53.4,0.0,1,Ho0.65 Pr0.35 Ba2 Cu3 O7
5759,[6442],Ho0.7Pr0.3Ba2Cu3O7-Z,Ho0.7Pr0.3Ba2Cu3O7,"{'Ba': 2.0, 'Cu': 3.0, 'Ho': 0.7000000000000001, 'O': 7.0, 'Pr': 0.30000000000000004}",60.0,60.0,0.0,1,Ho0.7 Pr0.3 Ba2 Cu3 O7
5760,[6441],Ho0.75Pr0.25Ba2Cu3O7-Z,Ho0.75Pr0.25Ba2Cu3O7,"{'Ba': 2.0, 'Cu': 3.0, 'Ho': 0.75, 'O': 7.0, 'Pr': 0.25}",67.5,67.5,0.0,1,Ho0.75 Pr0.25 Ba2 Cu3 O7
5761,"[1902, 6440, 6811]",Ho0.8Pr0.2Ba2Cu3O7-Z,Ho0.8Pr0.2Ba2Cu3O7,"{'Ba': 2.0, 'Cu': 3.0, 'Ho': 0.8, 'O': 7.0, 'Pr': 0.2}",79.5,76.4,2.2759613353,3,Ho0.8 Pr0.2 Ba2 Cu3 O7
5762,[6439],Ho0.85Pr0.15Ba2Cu3O7-Z,Ho0.85Pr0.15Ba2Cu3O7,"{'Ba': 2.0, 'Cu': 3.0, 'Ho': 0.85, 'O': 7.0, 'Pr': 0.15}",81.2,81.2,0.0,1,Ho0.85 Pr0.15 Ba2 Cu3 O7
5763,[6438],Ho0.9Pr0.1Ba2Cu3O7-Z,Ho0.9Pr0.1Ba2Cu3O7,"{'Ba': 2.0, 'Cu': 3.0, 'Ho': 0.9, 'O': 7.0, 'Pr': 0.1}",86.7,86.7,0.0,1,Ho0.9 Pr0.1 Ba2 Cu3 O7
5764,[6437],Ho0.95Pr0.05Ba2Cu3O7-Z,Ho0.95Pr0.05Ba2Cu3O7,"{'Ba': 2.0, 'Cu': 3.0, 'Ho': 0.9500000000000001, 'O': 7.0, 'Pr': 0.05}",60.5,60.5,0.0,1,Ho0.95 Pr0.05 Ba2 Cu3 O7
5765,[153],Ho1Ba2Cu3O6.71,Ho1Ba2Cu3O6.71,"{'Ba': 2.0, 'Cu': 3.0, 'Ho': 1.0, 'O': 6.71}",92.9,92.9,0.0,1,Ho1 Ba2 Cu3 O6.71
5766,[4888],Ho1Ba2Cu3O6.87,Ho1Ba2Cu3O6.87,"{'Ba': 2.0, 'Cu': 3.0, 'Ho': 1.0, 'O': 6.87}",92.3,92.3,0.0,1,Ho1 Ba2 Cu3 O6.87
5767,[2893],Ho1Ba2Cu3O6.9,Ho1Ba2Cu3O6.9,"{'Ba': 2.0, 'Cu': 3.0, 'Ho': 1.0, 'O': 6.9}",91.5,91.5,0.0,1,Ho1 Ba2 Cu3 O6.9
5768,[4889],Ho1Ba2Cu3O6.96,Ho1Ba2Cu3O6.96,"{'Ba': 2.0, 'Cu': 3.0, 'Ho': 1.0, 'O': 6.96}",91.8,91.8,0.0,1,Ho1 Ba2 Cu3 O6.96
5769,"[255, 257, 324, 335, 1267, 1617, 1682, 6436, 8073, 8567, 8588]",Ho1Ba2Cu3O7,Ho1Ba2Cu3O7,"{'Ba': 2.0, 'Cu': 3.0, 'Ho': 1.0, 'O': 7.0}",95.0,91.80909090910001,1.4393524715,11,Ho1 Ba2 Cu3 O7
5770,[102],Ho1Ba2Cu3O8-X,Ho1Ba2Cu3O8,"{'Ba': 2.0, 'Cu': 3.0, 'Ho': 1.0, 'O': 8.0}",85.0,85.0,0.0,1,Ho1 Ba2 Cu3 O8
5771,[3958],Y0.95K0.05Ba2Cu3O6.6,Y0.95K0.05Ba2Cu3O6.6,"{'Ba': 2.0, 'Cu': 3.0, 'K': 0.05, 'O': 6.6, 'Y': 0.9500000000000001}",89.4,89.4,0.0,1,Y0.95 K0.05 Ba2 Cu3 O6.6
5772,[3959],Y0.9K0.1Ba2Cu3O6.51,Y0.9K0.1Ba2Cu3O6.51,"{'Ba': 2.0, 'Cu': 3.0, 'K': 0.1, 'O': 6.51, 'Y': 0.9}",92.05,92.05,0.0,1,Y0.9 K0.1 Ba2 Cu3 O6.51
5773,[3960],Y0.85K0.15Ba2Cu3O6.48,Y0.85K0.15Ba2Cu3O6.48,"{'Ba': 2.0, 'Cu': 3.0, 'K': 0.15, 'O': 6.48, 'Y': 0.85}",90.15,90.15,0.0,1,Y0.85 K0.15 Ba2 Cu3 O6.48
5774,[10810],Y0.99La0.01Ba2Cu3O7.07,Y0.99La0.01Ba2Cu3O7.07,"{'Ba': 2.0, 'Cu': 3.0, 'La': 0.01, 'O': 7.07, 'Y': 0.99}",91.0,91.0,0.0,1,Y0.99 La0.01 Ba2 Cu3 O7.07
5775,[7321],Nd0.95La0.05Ba2Cu3O7-z,Nd0.95La0.05Ba2Cu3O7,"{'Ba': 2.0, 'Cu': 3.0, 'La': 0.05, 'Nd': 0.9500000000000001, 'O': 7.0}",91.78,91.78,0.0,1,Nd0.95 La0.05 Ba2 Cu3 O7
5776,[3978],Y0.95La0.05Ba2Cu3O6.58,Y0.95La0.05Ba2Cu3O6.58,"{'Ba': 2.0, 'Cu': 3.0, 'La': 0.05, 'O': 6.58, 'Y': 0.9500000000000001}",93.65,93.65,0.0,1,Y0.95 La0.05 Ba2 Cu3 O6.58
5777,[7322],Nd0.9La0.1Ba2Cu3O7-z,Nd0.9La0.1Ba2Cu3O7,"{'Ba': 2.0, 'Cu': 3.0, 'La': 0.1, 'Nd': 0.9, 'O': 7.0}",91.09,91.09,0.0,1,Nd0.9 La0.1 Ba2 Cu3 O7
5778,[3979],Y0.9La0.1Ba2Cu3O6.62,Y0.9La0.1Ba2Cu3O6.62,"{'Ba': 2.0, 'Cu': 3.0, 'La': 0.1, 'O': 6.62, 'Y': 0.9}",92.35,92.35,0.0,1,Y0.9 La0.1 Ba2 Cu3 O6.62
5779,[10811],Y0.9La0.1Ba2Cu3O6.97,Y0.9La0.1Ba2Cu3O6.97,"{'Ba': 2.0, 'Cu': 3.0, 'La': 0.1, 'O': 6.97, 'Y': 0.9}",91.0,91.0,0.0,1,Y0.9 La0.1 Ba2 Cu3 O6.97
5780,[7323],Nd0.85La0.15Ba2Cu3O7-z,Nd0.85La0.15Ba2Cu3O7,"{'Ba': 2.0, 'Cu': 3.0, 'La': 0.15, 'Nd': 0.85, 'O': 7.0}",89.21,89.21,0.0,1,Nd0.85 La0.15 Ba2 Cu3 O7
5781,[10812],Y0.8La0.2Ba2Cu3O6.9,Y0.8La0.2Ba2Cu3O6.9,"{'Ba': 2.0, 'Cu': 3.0, 'La': 0.2, 'O': 6.9, 'Y': 0.8}",84.0,84.0,0.0,1,Y0.8 La0.2 Ba2 Cu3 O6.9
5782,"[7444, 7448]",Y0.4375La0.2625Pr0.3Ba2Cu3O7-z,Y0.4375La0.2625Pr0.3Ba2Cu3O7,"{'Ba': 2.0, 'Cu': 3.0, 'La': 0.2625, 'O': 7.0, 'Pr': 0.30000000000000004, 'Y': 0.4375}",28.9,14.45,14.45,2,Y0.4375 La0.2625 Pr0.3 Ba2 Cu3 O7
5783,[10813],Y0.7La0.3Ba2Cu3O6.92,Y0.7La0.3Ba2Cu3O6.92,"{'Ba': 2.0, 'Cu': 3.0, 'La': 0.30000000000000004, 'O': 6.92, 'Y': 0.7000000000000001}",83.0,83.0,0.0,1,Y0.7 La0.3 Ba2 Cu3 O6.92
5784,"[7443, 7447]",Y0.5La0.3Pr0.2Ba2Cu3O7-z,Y0.5La0.3Pr0.2Ba2Cu3O7,"{'Ba': 2.0, 'Cu': 3.0, 'La': 0.30000000000000004, 'O': 7.0, 'Pr': 0.2, 'Y': 0.5}",44.8,32.9,11.9,2,Y0.5 La0.3 Pr0.2 Ba2 Cu3 O7
5785,"[7442, 7446]",Y0.5625La0.3375Pr0.1Ba2Cu3O7-z,Y0.5625La0.3375Pr0.1Ba2Cu3O7,"{'Ba': 2.0, 'Cu': 3.0, 'La': 0.3375, 'O': 7.0, 'Pr': 0.1, 'Y': 0.5625}",63.7,51.85,11.85,2,Y0.5625 La0.3375 Pr0.1 Ba2 Cu3 O7
5786,"[7441, 7445]",Y0.625La0.375Ba2Cu3O7-z,Y0.625La0.375Ba2Cu3O7,"{'Ba': 2.0, 'Cu': 3.0, 'La': 0.375, 'O': 7.0, 'Y': 0.625}",85.2,67.6,17.6,2,Y0.625 La0.375 Ba2 Cu3 O7
5787,[10814],Y0.6La0.4Ba2Cu3O6.92,Y0.6La0.4Ba2Cu3O6.92,"{'Ba': 2.0, 'Cu': 3.0, 'La': 0.4, 'O': 6.92, 'Y': 0.6000000000000001}",85.0,85.0,0.0,1,Y0.6 La0.4 Ba2 Cu3 O6.92
5788,[7437],La0.5Pr0.5Ba2Cu3O7,La0.5Pr0.5Ba2Cu3O7,"{'Ba': 2.0, 'Cu': 3.0, 'La': 0.5, 'O': 7.0, 'Pr': 0.5}",51.7,51.7,0.0,1,La0.5 Pr0.5 Ba2 Cu3 O7
5789,[10815],Y0.5La0.5Ba2Cu3O7.01,Y0.5La0.5Ba2Cu3O7.01,"{'Ba': 2.0, 'Cu': 3.0, 'La': 0.5, 'O': 7.01, 'Y': 0.5}",86.0,86.0,0.0,1,Y0.5 La0.5 Ba2 Cu3 O7.01
5790,[10816],Y0.4La0.6Ba2Cu3O6.99,Y0.4La0.6Ba2Cu3O6.99,"{'Ba': 2.0, 'Cu': 3.0, 'La': 0.6000000000000001, 'O': 6.99, 'Y': 0.4}",85.0,85.0,0.0,1,Y0.4 La0.6 Ba2 Cu3 O6.99
5791,[7436],La0.6Pr0.4Ba2Cu3O7,La0.6Pr0.4Ba2Cu3O7,"{'Ba': 2.0, 'Cu': 3.0, 'La': 0.6000000000000001, 'O': 7.0, 'Pr': 0.4}",54.8,54.8,0.0,1,La0.6 Pr0.4 Ba2 Cu3 O7
5792,[10817],Y0.3La0.7Ba2Cu3O6.98,Y0.3La0.7Ba2Cu3O6.98,"{'Ba': 2.0, 'Cu': 3.0, 'La': 0.7000000000000001, 'O': 6.98, 'Y': 0.30000000000000004}",82.0,82.0,0.0,1,Y0.3 La0.7 Ba2 Cu3 O6.98
5793,[7435],La0.7Pr0.3Ba2Cu3O7,La0.7Pr0.3Ba2Cu3O7,"{'Ba': 2.0, 'Cu': 3.0, 'La': 0.7000000000000001, 'O': 7.0, 'Pr': 0.30000000000000004}",57.1,57.1,0.0,1,La0.7 Pr0.3 Ba2 Cu3 O7
5794,"[1896, 7434]",La0.8Pr0.2Ba2Cu3O7-Z,La0.8Pr0.2Ba2Cu3O7,"{'Ba': 2.0, 'Cu': 3.0, 'La': 0.8, 'O': 7.0, 'Pr': 0.2}",59.8,40.15,19.65,2,La0.8 Pr0.2 Ba2 Cu3 O7
5795,[10818],Y0.2La0.8Ba2Cu3O7,Y0.2La0.8Ba2Cu3O7,"{'Ba': 2.0, 'Cu': 3.0, 'La': 0.8, 'O': 7.0, 'Y': 0.2}",81.0,81.0,0.0,1,Y0.2 La0.8 Ba2 Cu3 O7
5796,[7433],La0.9Pr0.1Ba2Cu3O7,La0.9Pr0.1Ba2Cu3O7,"{'Ba': 2.0, 'Cu': 3.0, 'La': 0.9, 'O': 7.0, 'Pr': 0.1}",68.3,68.3,0.0,1,La0.9 Pr0.1 Ba2 Cu3 O7
5797,[10819],Y0.1La0.9Ba2Cu3O7.05,Y0.1La0.9Ba2Cu3O7.05,"{'Ba': 2.0, 'Cu': 3.0, 'La': 0.9, 'O': 7.05, 'Y': 0.1}",79.0,79.0,0.0,1,Y0.1 La0.9 Ba2 Cu3 O7.05
5798,[705],La1Ba2Cu3O6.85,La1Ba2Cu3O6.85,"{'Ba': 2.0, 'Cu': 3.0, 'La': 1.0, 'O': 6.85}",93.0,93.0,0.0,1,La1 Ba2 Cu3 O6.85
5799,[4348],La1Ba2Cu3O6.89,La1Ba2Cu3O6.89,"{'Ba': 2.0, 'Cu': 3.0, 'La': 1.0, 'O': 6.89}",76.0,76.0,0.0,1,La1 Ba2 Cu3 O6.89
5800,[10820],La1Ba2Cu3O6.95,La1Ba2Cu3O6.95,"{'Ba': 2.0, 'Cu': 3.0, 'La': 1.0, 'O': 6.95}",74.0,74.0,0.0,1,La1 Ba2 Cu3 O6.95
5801,"[762, 7432, 10014, 10015]",La1Ba2Cu3O7-Z,La1Ba2Cu3O7,"{'Ba': 2.0, 'Cu': 3.0, 'La': 1.0, 'O': 7.0}",93.0,91.9,1.3892443989,4,La1 Ba2 Cu3 O7
5802,[570],Y1Ba2La1.94Cu3O6.963,Y1Ba2La1.94Cu3O6.963,"{'Ba': 2.0, 'Cu': 3.0, 'La': 1.94, 'O': 6.963, 'Y': 1.0}",91.8,91.8,0.0,1,Y1 Ba2 La1.94 Cu3 O6.963
5803,"[5765, 6142, 6175, 6176, 6177, 6178]",Y1Ba2Cu3Li0.02O7-z,Y1Ba2Cu3Li0.02O7,"{'Ba': 2.0, 'Cu': 3.0, 'Li': 0.02, 'O': 7.0, 'Y': 1.0}",91.18,89.7433333333,1.075448227,6,Y1 Ba2 Cu3 Li0.02 O7
5804,"[6179, 6180, 6181, 6182]",Y1Ba2Cu3Li0.06O7-Z,Y1Ba2Cu3Li0.06O7,"{'Ba': 2.0, 'Cu': 3.0, 'Li': 0.06, 'O': 7.0, 'Y': 1.0}",88.8,87.35,0.85,4,Y1 Ba2 Cu3 Li0.06 O7
5805,"[5766, 6143]",Y1Ba2Cu3Li0.08O7-z,Y1Ba2Cu3Li0.08O7,"{'Ba': 2.0, 'Cu': 3.0, 'Li': 0.08, 'O': 7.0, 'Y': 1.0}",89.2,89.2,0.0,2,Y1 Ba2 Cu3 Li0.08 O7
5806,"[5767, 6144]",Y1Ba2Cu3Li0.1O7-z,Y1Ba2Cu3Li0.1O7,"{'Ba': 2.0, 'Cu': 3.0, 'Li': 0.1, 'O': 7.0, 'Y': 1.0}",88.91,88.91,0.0,2,Y1 Ba2 Cu3 Li0.1 O7
5807,"[5768, 6145]",Y1Ba2Cu3Li0.3O7-z,Y1Ba2Cu3Li0.3O7,"{'Ba': 2.0, 'Cu': 3.0, 'Li': 0.30000000000000004, 'O': 7.0, 'Y': 1.0}",86.0,86.0,0.0,2,Y1 Ba2 Cu3 Li0.3 O7
5808,"[5769, 6146]",Y1Ba2Cu3Li0.5O7-z,Y1Ba2Cu3Li0.5O7,"{'Ba': 2.0, 'Cu': 3.0, 'Li': 0.5, 'O': 7.0, 'Y': 1.0}",83.79,83.79,0.0,2,Y1 Ba2 Cu3 Li0.5 O7
5809,[10281],Yb0.9Lu0.1Ba2Cu3O7-z,Yb0.9Lu0.1Ba2Cu3O7,"{'Ba': 2.0, 'Cu': 3.0, 'Lu': 0.1, 'O': 7.0, 'Yb': 0.9}",89.5,89.5,0.0,1,Yb0.9 Lu0.1 Ba2 Cu3 O7
5810,[10282],Yb0.8Lu0.2Ba2Cu3O6.94,Yb0.8Lu0.2Ba2Cu3O6.94,"{'Ba': 2.0, 'Cu': 3.0, 'Lu': 0.2, 'O': 6.94, 'Yb': 0.8}",89.9,89.9,0.0,1,Yb0.8 Lu0.2 Ba2 Cu3 O6.94
5811,[10283],Yb0.7Lu0.3Ba2Cu3O7-z,Yb0.7Lu0.3Ba2Cu3O7,"{'Ba': 2.0, 'Cu': 3.0, 'Lu': 0.30000000000000004, 'O': 7.0, 'Yb': 0.7000000000000001}",89.7,89.7,0.0,1,Yb0.7 Lu0.3 Ba2 Cu3 O7
5812,[10284],Yb0.6Lu0.4Ba2Cu3O6.92,Yb0.6Lu0.4Ba2Cu3O6.92,"{'Ba': 2.0, 'Cu': 3.0, 'Lu': 0.4, 'O': 6.92, 'Yb': 0.6000000000000001}",89.7,89.7,0.0,1,Yb0.6 Lu0.4 Ba2 Cu3 O6.92
5813,[3438],Lu0.45Pr0.55Ba2Cu3O7-z,Lu0.45Pr0.55Ba2Cu3O7,"{'Ba': 2.0, 'Cu': 3.0, 'Lu': 0.45, 'O': 7.0, 'Pr': 0.55}",13.0,13.0,0.0,1,Lu0.45 Pr0.55 Ba2 Cu3 O7
5814,[2719],Lu0.5Pr0.5Ba2Cu3O6.75,Lu0.5Pr0.5Ba2Cu3O6.75,"{'Ba': 2.0, 'Cu': 3.0, 'Lu': 0.5, 'O': 6.75, 'Pr': 0.5}",40.1,40.1,0.0,1,Lu0.5 Pr0.5 Ba2 Cu3 O6.75
5815,"[3437, 8139]",Lu0.5Pr0.5Ba2Cu3O7-z,Lu0.5Pr0.5Ba2Cu3O7,"{'Ba': 2.0, 'Cu': 3.0, 'Lu': 0.5, 'O': 7.0, 'Pr': 0.5}",37.0,33.0,4.0,2,Lu0.5 Pr0.5 Ba2 Cu3 O7
5816,[8140],Lu0.55Pr0.45Ba2Cu3O7-d,Lu0.55Pr0.45Ba2Cu3O7,"{'Ba': 2.0, 'Cu': 3.0, 'Lu': 0.55, 'O': 7.0, 'Pr': 0.45}",24.0,24.0,0.0,1,Lu0.55 Pr0.45 Ba2 Cu3 O7
5817,"[3436, 3893, 8137]",Lu0.6Pr0.4Ba2Cu3O7-z,Lu0.6Pr0.4Ba2Cu3O7,"{'Ba': 2.0, 'Cu': 3.0, 'Lu': 0.6000000000000001, 'O': 7.0, 'Pr': 0.4}",59.1,54.0333333333,4.1233751008,3,Lu0.6 Pr0.4 Ba2 Cu3 O7
5818,"[3434, 3892, 8135]",Lu0.7Pr0.3Ba2Cu3O7-z,Lu0.7Pr0.3Ba2Cu3O7,"{'Ba': 2.0, 'Cu': 3.0, 'Lu': 0.7000000000000001, 'O': 7.0, 'Pr': 0.30000000000000004}",73.5,71.5,1.4719601444000001,3,Lu0.7 Pr0.3 Ba2 Cu3 O7
5819,"[1906, 3432, 3891, 8133]",Lu0.8Pr0.2Ba2Cu3O7-Z,Lu0.8Pr0.2Ba2Cu3O7,"{'Ba': 2.0, 'Cu': 3.0, 'Lu': 0.8, 'O': 7.0, 'Pr': 0.2}",86.8,80.25,4.1841964581,4,Lu0.8 Pr0.2 Ba2 Cu3 O7
5820,"[3431, 3890]",Lu0.85Pr0.15Ba2Cu3O7-z,Lu0.85Pr0.15Ba2Cu3O7,"{'Ba': 2.0, 'Cu': 3.0, 'Lu': 0.85, 'O': 7.0, 'Pr': 0.15}",89.7,86.1,3.6,2,Lu0.85 Pr0.15 Ba2 Cu3 O7
5821,[3270],Lu0.9Pr0.1Ba2Cu3O2,Lu0.9Pr0.1Ba2Cu3O2,"{'Ba': 2.0, 'Cu': 3.0, 'Lu': 0.9, 'O': 2.0, 'Pr': 0.1}",85.0,85.0,0.0,1,Lu0.9 Pr0.1 Ba2 Cu3 O2
5822,"[3429, 8131]",Lu0.9Pr0.1Ba2Cu3O7-z,Lu0.9Pr0.1Ba2Cu3O7,"{'Ba': 2.0, 'Cu': 3.0, 'Lu': 0.9, 'O': 7.0, 'Pr': 0.1}",86.0,84.5,1.5,2,Lu0.9 Pr0.1 Ba2 Cu3 O7
5823,"[3428, 8129]",Lu0.93Pr0.07Ba2Cu3O7-z,Lu0.93Pr0.07Ba2Cu3O7,"{'Ba': 2.0, 'Cu': 3.0, 'Lu': 0.93, 'O': 7.0, 'Pr': 0.07}",85.0,81.5,3.5,2,Lu0.93 Pr0.07 Ba2 Cu3 O7
5824,"[157, 1610, 1687, 3889, 6773, 8128, 9197, 9198, 9199, 9200, 9201, 21404]",Lu1Ba2Cu3O7-X,Lu1Ba2Cu3O7,"{'Ba': 2.0, 'Cu': 3.0, 'Lu': 1.0, 'O': 7.0}",92.4,87.9625,3.0721277236,12,Lu1 Ba2 Cu3 O7
5825,[3235],Yb0.6Nd0.2Pr0.2Ba2Cu3O7-Z,Yb0.6Nd0.2Pr0.2Ba2Cu3O7,"{'Ba': 2.0, 'Cu': 3.0, 'Nd': 0.2, 'O': 7.0, 'Pr': 0.2, 'Yb': 0.6000000000000001}",70.3,70.3,0.0,1,Yb0.6 Nd0.2 Pr0.2 Ba2 Cu3 O7
5826,[3237],Yb0.4Nd0.4Pr0.2Ba2Cu3O7-Z,Yb0.4Nd0.4Pr0.2Ba2Cu3O7,"{'Ba': 2.0, 'Cu': 3.0, 'Nd': 0.4, 'O': 7.0, 'Pr': 0.2, 'Yb': 0.4}",56.6,56.6,0.0,1,Yb0.4 Nd0.4 Pr0.2 Ba2 Cu3 O7
5827,[3873],Nd0.7Pr0.3Ba2Cu3O7,Nd0.7Pr0.3Ba2Cu3O7,"{'Ba': 2.0, 'Cu': 3.0, 'Nd': 0.7000000000000001, 'O': 7.0, 'Pr': 0.30000000000000004}",5.6,5.6,0.0,1,Nd0.7 Pr0.3 Ba2 Cu3 O7
5828,[4971],Nd0.75Pr0.25Ba2Cu3O6.85,Nd0.75Pr0.25Ba2Cu3O6.85,"{'Ba': 2.0, 'Cu': 3.0, 'Nd': 0.75, 'O': 6.85, 'Pr': 0.25}",9.2,9.2,0.0,1,Nd0.75 Pr0.25 Ba2 Cu3 O6.85
5829,[2718],Nd0.75Pr0.25Ba2Cu3O6.96,Nd0.75Pr0.25Ba2Cu3O6.96,"{'Ba': 2.0, 'Cu': 3.0, 'Nd': 0.75, 'O': 6.96, 'Pr': 0.25}",11.7,11.7,0.0,1,Nd0.75 Pr0.25 Ba2 Cu3 O6.96
5830,[4976],Nd0.8Pr0.2Ba2Cu3O6.75,Nd0.8Pr0.2Ba2Cu3O6.75,"{'Ba': 2.0, 'Cu': 3.0, 'Nd': 0.8, 'O': 6.75, 'Pr': 0.2}",9.8,9.8,0.0,1,Nd0.8 Pr0.2 Ba2 Cu3 O6.75
5831,[7096],Nd0.8Pr0.2Ba2Cu3O6.81,Nd0.8Pr0.2Ba2Cu3O6.81,"{'Ba': 2.0, 'Cu': 3.0, 'Nd': 0.8, 'O': 6.8100000000000005, 'Pr': 0.2}",50.0,50.0,0.0,1,Nd0.8 Pr0.2 Ba2 Cu3 O6.81
5832,[4970],Nd0.8Pr0.2Ba2Cu3O6.85,Nd0.8Pr0.2Ba2Cu3O6.85,"{'Ba': 2.0, 'Cu': 3.0, 'Nd': 0.8, 'O': 6.85, 'Pr': 0.2}",30.2,30.2,0.0,1,Nd0.8 Pr0.2 Ba2 Cu3 O6.85
5833,"[1897, 3872, 6816, 8604]",Nd0.8Pr0.2Ba2Cu3O7-Z,Nd0.8Pr0.2Ba2Cu3O7,"{'Ba': 2.0, 'Cu': 3.0, 'Nd': 0.8, 'O': 7.0, 'Pr': 0.2}",49.0,36.775,8.8854867621,4,Nd0.8 Pr0.2 Ba2 Cu3 O7
5834,[4975],Nd0.85Pr0.15Ba2Cu3O6.75,Nd0.85Pr0.15Ba2Cu3O6.75,"{'Ba': 2.0, 'Cu': 3.0, 'Nd': 0.85, 'O': 6.75, 'Pr': 0.15}",21.6,21.6,0.0,1,Nd0.85 Pr0.15 Ba2 Cu3 O6.75
5835,[4969],Nd0.85Pr0.15Ba2Cu3O6.85,Nd0.85Pr0.15Ba2Cu3O6.85,"{'Ba': 2.0, 'Cu': 3.0, 'Nd': 0.85, 'O': 6.85, 'Pr': 0.15}",41.3,41.3,0.0,1,Nd0.85 Pr0.15 Ba2 Cu3 O6.85
5836,"[3871, 7316]",Nd0.85Pr0.15Ba2Cu3O7,Nd0.85Pr0.15Ba2Cu3O7,"{'Ba': 2.0, 'Cu': 3.0, 'Nd': 0.85, 'O': 7.0, 'Pr': 0.15}",59.7,50.2,9.5,2,Nd0.85 Pr0.15 Ba2 Cu3 O7
5837,[4979],Nd0.9Pr0.1Ba2Cu3O6.65,Nd0.9Pr0.1Ba2Cu3O6.65,"{'Ba': 2.0, 'Cu': 3.0, 'Nd': 0.9, 'O': 6.65, 'Pr': 0.1}",16.8,16.8,0.0,1,Nd0.9 Pr0.1 Ba2 Cu3 O6.65
5838,[4974],Nd0.9Pr0.1Ba2Cu3O6.75,Nd0.9Pr0.1Ba2Cu3O6.75,"{'Ba': 2.0, 'Cu': 3.0, 'Nd': 0.9, 'O': 6.75, 'Pr': 0.1}",35.9,35.9,0.0,1,Nd0.9 Pr0.1 Ba2 Cu3 O6.75
5839,[4968],Nd0.9Pr0.1Ba2Cu3O6.85,Nd0.9Pr0.1Ba2Cu3O6.85,"{'Ba': 2.0, 'Cu': 3.0, 'Nd': 0.9, 'O': 6.85, 'Pr': 0.1}",48.3,48.3,0.0,1,Nd0.9 Pr0.1 Ba2 Cu3 O6.85
5840,[7315],Nd0.9Pr0.1Ba2Cu3O7-z,Nd0.9Pr0.1Ba2Cu3O7,"{'Ba': 2.0, 'Cu': 3.0, 'Nd': 0.9, 'O': 7.0, 'Pr': 0.1}",73.0,73.0,0.0,1,Nd0.9 Pr0.1 Ba2 Cu3 O7
5841,[3870],Nd0.92Pr0.08Ba2Cu3O7,Nd0.92Pr0.08Ba2Cu3O7,"{'Ba': 2.0, 'Cu': 3.0, 'Nd': 0.92, 'O': 7.0, 'Pr': 0.08}",68.2,68.2,0.0,1,Nd0.92 Pr0.08 Ba2 Cu3 O7
5842,[4981],Nd0.95Pr0.05Ba2Cu3O6.6,Nd0.95Pr0.05Ba2Cu3O6.6,"{'Ba': 2.0, 'Cu': 3.0, 'Nd': 0.9500000000000001, 'O': 6.6, 'Pr': 0.05}",4.1,4.1,0.0,1,Nd0.95 Pr0.05 Ba2 Cu3 O6.6