,sc_id,supercon_formula,cleaned_formula,material_dict,highest_Tc,average_Tc,std_Tc,entry_count,composition
3834,[4844],Nd0.9Ba1.7Sr0.4Cu3O6.666,Nd0.9Ba1.7Sr0.4Cu3O6.666,"{'Ba': 1.7000000000000002, 'Cu': 3.0, 'Nd': 0.9, 'O': 6.666, 'Sr': 0.4}",82.0,82.0,0.0,1,Nd0.9 Ba1.7 Sr0.4 Cu3 O6.666
3835,[4838],Nd1.1Ba1.7Sr0.2Cu3O6.858,Nd1.1Ba1.7Sr0.2Cu3O6.858,"{'Ba': 1.7000000000000002, 'Cu': 3.0, 'Nd': 1.1, 'O': 6.858, 'Sr': 0.2}",70.0,70.0,0.0,1,Nd1.1 Ba1.7 Sr0.2 Cu3 O6.858
3836,[4847],Nd1.3Ba1.7Cu3O6.987,Nd1.3Ba1.7Cu3O6.987,"{'Ba': 1.7000000000000002, 'Cu': 3.0, 'Nd': 1.3, 'O': 6.987}",33.0,33.0,0.0,1,Nd1.3 Ba1.7 Cu3 O6.987
3837,"[611, 1240, 2187, 5664]",Nd1.3Ba1.7Cu3O7-Z,Nd1.3Ba1.7Cu3O7,"{'Ba': 1.7000000000000002, 'Cu': 3.0, 'Nd': 1.3, 'O': 7.0}",69.0,44.1,14.544758506099999,4,Nd1.3 Ba1.7 Cu3 O7
3838,[2897],Nd1.3Ba1.7Cu3O7.14,Nd1.3Ba1.7Cu3O7.14,"{'Ba': 1.7000000000000002, 'Cu': 3.0, 'Nd': 1.3, 'O': 7.14}",32.0,32.0,0.0,1,Nd1.3 Ba1.7 Cu3 O7.14
3839,[3972],Y1Ba1.7Rb0.3Cu3O6.52,Y1Ba1.7Rb0.3Cu3O6.52,"{'Ba': 1.7000000000000002, 'Cu': 3.0, 'O': 6.52, 'Rb': 0.30000000000000004, 'Y': 1.0}",91.05,91.05,0.0,1,Y1 Ba1.7 Rb0.3 Cu3 O6.52
3840,[8199],Yb0.55Pr0.45Ba1.7Sr0.3Cu3O6.88,Yb0.55Pr0.45Ba1.7Sr0.3Cu3O6.88,"{'Ba': 1.7000000000000002, 'Cu': 3.0, 'O': 6.88, 'Pr': 0.45, 'Sr': 0.30000000000000004, 'Yb': 0.55}",41.0,41.0,0.0,1,Yb0.55 Pr0.45 Ba1.7 Sr0.3 Cu3 O6.88
3841,[8192],Yb0.9Pr0.1Ba1.7Sr0.3Cu3O6.9,Yb0.9Pr0.1Ba1.7Sr0.3Cu3O6.9,"{'Ba': 1.7000000000000002, 'Cu': 3.0, 'O': 6.9, 'Pr': 0.1, 'Sr': 0.30000000000000004, 'Yb': 0.9}",81.0,81.0,0.0,1,Yb0.9 Pr0.1 Ba1.7 Sr0.3 Cu3 O6.9
3842,[8190],Yb1Ba1.7Sr0.3Cu3O6.9,Yb1Ba1.7Sr0.3Cu3O6.9,"{'Ba': 1.7000000000000002, 'Cu': 3.0, 'O': 6.9, 'Sr': 0.30000000000000004, 'Yb': 1.0}",81.0,81.0,0.0,1,Yb1 Ba1.7 Sr0.3 Cu3 O6.9
3843,[8191],Yb0.95Pr0.05Ba1.7Sr0.3Cu3O6.91,Yb0.95Pr0.05Ba1.7Sr0.3Cu3O6.91,"{'Ba': 1.7000000000000002, 'Cu': 3.0, 'O': 6.91, 'Pr': 0.05, 'Sr': 0.30000000000000004, 'Yb': 0.9500000000000001}",81.0,81.0,0.0,1,Yb0.95 Pr0.05 Ba1.7 Sr0.3 Cu3 O6.91
3844,[8193],Yb0.85Pr0.15Ba1.7Sr0.3Cu3O6.91,Yb0.85Pr0.15Ba1.7Sr0.3Cu3O6.91,"{'Ba': 1.7000000000000002, 'Cu': 3.0, 'O': 6.91, 'Pr': 0.15, 'Sr': 0.30000000000000004, 'Yb': 0.85}",80.0,80.0,0.0,1,Yb0.85 Pr0.15 Ba1.7 Sr0.3 Cu3 O6.91
3845,[8201],Yb0.45Pr0.55Ba1.7Sr0.3Cu3O6.91,Yb0.45Pr0.55Ba1.7Sr0.3Cu3O6.91,"{'Ba': 1.7000000000000002, 'Cu': 3.0, 'O': 6.91, 'Pr': 0.55, 'Sr': 0.30000000000000004, 'Yb': 0.45}",15.0,15.0,0.0,1,Yb0.45 Pr0.55 Ba1.7 Sr0.3 Cu3 O6.91
3846,[8194],Yb0.8Pr0.2Ba1.7Sr0.3Cu3O6.92,Yb0.8Pr0.2Ba1.7Sr0.3Cu3O6.92,"{'Ba': 1.7000000000000002, 'Cu': 3.0, 'O': 6.92, 'Pr': 0.2, 'Sr': 0.30000000000000004, 'Yb': 0.8}",76.0,76.0,0.0,1,Yb0.8 Pr0.2 Ba1.7 Sr0.3 Cu3 O6.92
3847,[8195],Yb0.75Pr0.25Ba1.7Sr0.3Cu3O6.92,Yb0.75Pr0.25Ba1.7Sr0.3Cu3O6.92,"{'Ba': 1.7000000000000002, 'Cu': 3.0, 'O': 6.92, 'Pr': 0.25, 'Sr': 0.30000000000000004, 'Yb': 0.75}",71.0,71.0,0.0,1,Yb0.75 Pr0.25 Ba1.7 Sr0.3 Cu3 O6.92
3848,[8196],Yb0.7Pr0.3Ba1.7Sr0.3Cu3O6.93,Yb0.7Pr0.3Ba1.7Sr0.3Cu3O6.93,"{'Ba': 1.7000000000000002, 'Cu': 3.0, 'O': 6.93, 'Pr': 0.30000000000000004, 'Sr': 0.30000000000000004, 'Yb': 0.7000000000000001}",63.0,63.0,0.0,1,Yb0.7 Pr0.3 Ba1.7 Sr0.3 Cu3 O6.93
3849,[8198],Yb0.6Pr0.4Ba1.7Sr0.3Cu3O6.93,Yb0.6Pr0.4Ba1.7Sr0.3Cu3O6.93,"{'Ba': 1.7000000000000002, 'Cu': 3.0, 'O': 6.93, 'Pr': 0.4, 'Sr': 0.30000000000000004, 'Yb': 0.6000000000000001}",46.0,46.0,0.0,1,Yb0.6 Pr0.4 Ba1.7 Sr0.3 Cu3 O6.93
3850,[8200],Yb0.5Pr0.5Ba1.7Sr0.3Cu3O6.93,Yb0.5Pr0.5Ba1.7Sr0.3Cu3O6.93,"{'Ba': 1.7000000000000002, 'Cu': 3.0, 'O': 6.93, 'Pr': 0.5, 'Sr': 0.30000000000000004, 'Yb': 0.5}",30.0,30.0,0.0,1,Yb0.5 Pr0.5 Ba1.7 Sr0.3 Cu3 O6.93
3851,[8197],Yb0.65Pr0.35Ba1.7Sr0.3Cu3O6.95,Yb0.65Pr0.35Ba1.7Sr0.3Cu3O6.95,"{'Ba': 1.7000000000000002, 'Cu': 3.0, 'O': 6.95, 'Pr': 0.35000000000000003, 'Sr': 0.30000000000000004, 'Yb': 0.65}",55.0,55.0,0.0,1,Yb0.65 Pr0.35 Ba1.7 Sr0.3 Cu3 O6.95
3852,[2018],Y1Ba1.7La0.3Cu4O7.8,Y1Ba1.7La0.3Cu4O7.8,"{'Ba': 1.7000000000000002, 'Cu': 4.0, 'La': 0.30000000000000004, 'O': 7.8, 'Y': 1.0}",62.7,62.7,0.0,1,Y1 Ba1.7 La0.3 Cu4 O7.8
3853,[11504],Y1La0.3Ba1.7Cu4O8,Y1La0.3Ba1.7Cu4O8,"{'Ba': 1.7000000000000002, 'Cu': 4.0, 'La': 0.30000000000000004, 'O': 8.0, 'Y': 1.0}",52.6,52.6,0.0,1,Y1 La0.3 Ba1.7 Cu4 O8
3854,[6427],Nd1Ba1.7La0.3O6.77,Nd1Ba1.7La0.3O6.77,"{'Ba': 1.7000000000000002, 'La': 0.30000000000000004, 'Nd': 1.0, 'O': 6.77}",57.5,57.5,0.0,1,Nd1 Ba1.7 La0.3 O6.77
3855,[476],Sm1.28Ba1.72Cu3O7.03,Sm1.28Ba1.72Cu3O7.03,"{'Ba': 1.72, 'Cu': 3.0, 'O': 7.03, 'Sm': 1.28}",43.6,43.6,0.0,1,Sm1.28 Ba1.72 Cu3 O7.03
3856,[4778],Y1Ba1.72La0.28Cu4O8,Y1Ba1.72La0.28Cu4O8,"{'Ba': 1.72, 'Cu': 4.0, 'La': 0.28, 'O': 8.0, 'Y': 1.0}",18.9,18.9,0.0,1,Y1 Ba1.72 La0.28 Cu4 O8
3857,"[3667, 4695]",Sm1.27Ba1.73Cu3O7.05,Sm1.27Ba1.73Cu3O7.05,"{'Ba': 1.73, 'Cu': 3.0, 'O': 7.05, 'Sm': 1.27}",50.1,50.05,0.05,2,Sm1.27 Ba1.73 Cu3 O7.05
3858,[11969],Y0.38Ba1.74La0.88Cu3O6.95,Y0.38Ba1.74La0.88Cu3O6.95,"{'Ba': 1.74, 'Cu': 3.0, 'La': 0.88, 'O': 6.95, 'Y': 0.38}",25.0,25.0,0.0,1,Y0.38 Ba1.74 La0.88 Cu3 O6.95
3859,[12173],Ca0.1La1.15Ba1.75Cu3O7.148,Ca0.1La1.15Ba1.75Cu3O7.148,"{'Ba': 1.75, 'Ca': 0.1, 'Cu': 3.0, 'La': 1.15, 'O': 7.148}",57.1,57.1,0.0,1,Ca0.1 La1.15 Ba1.75 Cu3 O7.148
3860,[4810],La1Ba1.75Ca0.25Cu3O6.951,La1Ba1.75Ca0.25Cu3O6.951,"{'Ba': 1.75, 'Ca': 0.25, 'Cu': 3.0, 'La': 1.0, 'O': 6.9510000000000005}",80.0,80.0,0.0,1,La1 Ba1.75 Ca0.25 Cu3 O6.951
3861,"[3815, 3816]",Tl1Ba1.75Eu1.75Ce0.5Cu2O9-z,Tl1Ba1.75Eu1.75Ce0.5Cu2O9,"{'Ba': 1.75, 'Ce': 0.5, 'Cu': 2.0, 'Eu': 1.75, 'O': 9.0, 'Tl': 1.0}",40.0,32.75,7.25,2,Tl1 Ba1.75 Eu1.75 Ce0.5 Cu2 O9
3862,[9454],Y1Ba1.75Cu2.75Co0.25O6.95,Y1Ba1.75Cu2.75Co0.25O6.95,"{'Ba': 1.75, 'Co': 0.25, 'Cu': 2.75, 'O': 6.95, 'Y': 1.0}",25.0,25.0,0.0,1,Y1 Ba1.75 Cu2.75 Co0.25 O6.95
3863,[9449],Y1Ba1.75Cu2.75Co0.25O7.06,Y1Ba1.75Cu2.75Co0.25O7.06,"{'Ba': 1.75, 'Co': 0.25, 'Cu': 2.75, 'O': 7.06, 'Y': 1.0}",63.0,63.0,0.0,1,Y1 Ba1.75 Cu2.75 Co0.25 O7.06
3864,"[5514, 5519]",Hg0.7V0.3Ba1.75Sr0.25Cu1O4.6+z,Hg0.7V0.3Ba1.75Sr0.25Cu1O4.6,"{'Ba': 1.75, 'Cu': 1.0, 'Hg': 0.7000000000000001, 'O': 4.6, 'Sr': 0.25, 'V': 0.30000000000000004}",90.0,77.5,12.5,2,Hg0.7 V0.3 Ba1.75 Sr0.25 Cu1 O4.6
3865,[10845],Gd1Ba1.75Pr0.25Cu3O7.06,Gd1Ba1.75Pr0.25Cu3O7.06,"{'Ba': 1.75, 'Cu': 3.0, 'Gd': 1.0, 'O': 7.06, 'Pr': 0.25}",39.2,39.2,0.0,1,Gd1 Ba1.75 Pr0.25 Cu3 O7.06
3866,[11131],Gd1.25Ba1.75Cu3O6.98,Gd1.25Ba1.75Cu3O6.98,"{'Ba': 1.75, 'Cu': 3.0, 'Gd': 1.25, 'O': 6.98}",28.0,28.0,0.0,1,Gd1.25 Ba1.75 Cu3 O6.98
3867,[4819],La1Ba1.75Sr0.25Cu3O6.946,La1Ba1.75Sr0.25Cu3O6.946,"{'Ba': 1.75, 'Cu': 3.0, 'La': 1.0, 'O': 6.946, 'Sr': 0.25}",72.5,72.5,0.0,1,La1 Ba1.75 Sr0.25 Cu3 O6.946
3868,[3216],La1.25Ba1.75Cu3O7.07,La1.25Ba1.75Cu3O7.07,"{'Ba': 1.75, 'Cu': 3.0, 'La': 1.25, 'O': 7.07}",40.0,40.0,0.0,1,La1.25 Ba1.75 Cu3 O7.07
3869,[5782],Nd1.25Ba1.75Cu3O6.99,Nd1.25Ba1.75Cu3O6.99,"{'Ba': 1.75, 'Cu': 3.0, 'Nd': 1.25, 'O': 6.99}",52.7,52.7,0.0,1,Nd1.25 Ba1.75 Cu3 O6.99
3870,[5663],Nd1.25Ba1.75Cu3O7+z,Nd1.25Ba1.75Cu3O7,"{'Ba': 1.75, 'Cu': 3.0, 'Nd': 1.25, 'O': 7.0}",43.8,43.8,0.0,1,Nd1.25 Ba1.75 Cu3 O7
3871,[4815],Y1Ba1.75Sr0.25Cu3O6.928,Y1Ba1.75Sr0.25Cu3O6.928,"{'Ba': 1.75, 'Cu': 3.0, 'O': 6.928, 'Sr': 0.25, 'Y': 1.0}",89.6,89.6,0.0,1,Y1 Ba1.75 Sr0.25 Cu3 O6.928
3872,[575],Y1Ba1.76La0.24Cu3O7.024,Y1Ba1.76La0.24Cu3O7.024,"{'Ba': 1.76, 'Cu': 3.0, 'La': 0.24, 'O': 7.024, 'Y': 1.0}",73.4,73.4,0.0,1,Y1 Ba1.76 La0.24 Cu3 O7.024
3873,[7391],Y1Ba1.76Sr0.24Cu4O8,Y1Ba1.76Sr0.24Cu4O8,"{'Ba': 1.76, 'Cu': 4.0, 'O': 8.0, 'Sr': 0.24, 'Y': 1.0}",76.0,76.0,0.0,1,Y1 Ba1.76 Sr0.24 Cu4 O8
3874,[4777],Y1Ba1.78La0.22Cu4O8,Y1Ba1.78La0.22Cu4O8,"{'Ba': 1.78, 'Cu': 4.0, 'La': 0.22, 'O': 8.0, 'Y': 1.0}",37.9,37.9,0.0,1,Y1 Ba1.78 La0.22 Cu4 O8
3875,[9301],Bi2Ba1.8In1.2Cu1O6+z,Bi2Ba1.8In1.2Cu1O6,"{'Ba': 1.8, 'Bi': 2.0, 'Cu': 1.0, 'In': 1.2, 'O': 6.0}",95.0,95.0,0.0,1,Bi2 Ba1.8 In1.2 Cu1 O6
3876,[9302],Bi2Ba1.8Pb0.2Cu1O6+z,Bi2Ba1.8Pb0.2Cu1O6,"{'Ba': 1.8, 'Bi': 2.0, 'Cu': 1.0, 'O': 6.0, 'Pb': 0.2}",95.0,95.0,0.0,1,Bi2 Ba1.8 Pb0.2 Cu1 O6
3877,[9303],Bi2Ba1.8Ru0.2Cu1O6+z,Bi2Ba1.8Ru0.2Cu1O6,"{'Ba': 1.8, 'Bi': 2.0, 'Cu': 1.0, 'O': 6.0, 'Ru': 0.2}",95.0,95.0,0.0,1,Bi2 Ba1.8 Ru0.2 Cu1 O6
3878,[4786],Y0.9Ca0.1Ba1.8La0.2Cu3O6.97,Y0.9Ca0.1Ba1.8La0.2Cu3O6.97,"{'Ba': 1.8, 'Ca': 0.1, 'Cu': 3.0, 'La': 0.2, 'O': 6.97, 'Y': 0.9}",87.0,87.0,0.0,1,Y0.9 Ca0.1 Ba1.8 La0.2 Cu3 O6.97
3879,[2792],Yb0.9Ca0.1Ba1.8Sr0.2Cu4O8,Yb0.9Ca0.1Ba1.8Sr0.2Cu4O8,"{'Ba': 1.8, 'Ca': 0.1, 'Cu': 4.0, 'O': 8.0, 'Sr': 0.2, 'Yb': 0.9}",87.0,87.0,0.0,1,Yb0.9 Ca0.1 Ba1.8 Sr0.2 Cu4 O8
3880,[10987],Hg2Ba1.8Sr0.2Y0.8Ca0.2Cu2O8-z,Hg2Ba1.8Sr0.2Y0.8Ca0.2Cu2O8,"{'Ba': 1.8, 'Ca': 0.2, 'Cu': 2.0, 'Hg': 2.0, 'O': 8.0, 'Sr': 0.2, 'Y': 0.8}",32.5,32.5,0.0,1,Hg2 Ba1.8 Sr0.2 Y0.8 Ca0.2 Cu2 O8
3881,[4791],Y0.8Ca0.2Ba1.8La0.2Cu3O6.94,Y0.8Ca0.2Ba1.8La0.2Cu3O6.94,"{'Ba': 1.8, 'Ca': 0.2, 'Cu': 3.0, 'La': 0.2, 'O': 6.94, 'Y': 0.8}",84.0,84.0,0.0,1,Y0.8 Ca0.2 Ba1.8 La0.2 Cu3 O6.94
3882,[7930],Y0.8Ca0.2Ba1.8La0.2Cu3O6.96,Y0.8Ca0.2Ba1.8La0.2Cu3O6.96,"{'Ba': 1.8, 'Ca': 0.2, 'Cu': 3.0, 'La': 0.2, 'O': 6.96, 'Y': 0.8}",78.0,78.0,0.0,1,Y0.8 Ca0.2 Ba1.8 La0.2 Cu3 O6.96
3883,[4832],Nd1Ba1.8Ca0.2Cu3O6.866,Nd1Ba1.8Ca0.2Cu3O6.866,"{'Ba': 1.8, 'Ca': 0.2, 'Cu': 3.0, 'Nd': 1.0, 'O': 6.866}",73.0,73.0,0.0,1,Nd1 Ba1.8 Ca0.2 Cu3 O6.866
3884,[4697],Y0.4Pr0.6Ba1.8Ca0.2Cu3O7-z,Y0.4Pr0.6Ba1.8Ca0.2Cu3O7,"{'Ba': 1.8, 'Ca': 0.2, 'Cu': 3.0, 'O': 7.0, 'Pr': 0.6000000000000001, 'Y': 0.4}",23.9,23.9,0.0,1,Y0.4 Pr0.6 Ba1.8 Ca0.2 Cu3 O7
3885,[5490],Er0.76Ca0.24Ba1.8Sr0.2Cu2.76Co0.24O6.91,Er0.76Ca0.24Ba1.8Sr0.2Cu2.76Co0.24O6.91,"{'Ba': 1.8, 'Ca': 0.24, 'Co': 0.24, 'Cu': 2.76, 'Er': 0.76, 'O': 6.91, 'Sr': 0.2}",81.0,81.0,0.0,1,Er0.76 Ca0.24 Ba1.8 Sr0.2 Cu2.76 Co0.24 O6.91
3886,[9453],Y1Ba1.8Cu2.8Co0.2O6.95,Y1Ba1.8Cu2.8Co0.2O6.95,"{'Ba': 1.8, 'Co': 0.2, 'Cu': 2.8, 'O': 6.95, 'Y': 1.0}",43.0,43.0,0.0,1,Y1 Ba1.8 Cu2.8 Co0.2 O6.95
3887,[9448],Y1Ba1.8Cu2.8Co0.2O7.05,Y1Ba1.8Cu2.8Co0.2O7.05,"{'Ba': 1.8, 'Co': 0.2, 'Cu': 2.8, 'O': 7.05, 'Y': 1.0}",70.0,70.0,0.0,1,Y1 Ba1.8 Cu2.8 Co0.2 O7.05
3888,[3974],Y1Ba1.8Cs0.2Cu3O6.58,Y1Ba1.8Cs0.2Cu3O6.58,"{'Ba': 1.8, 'Cs': 0.2, 'Cu': 3.0, 'O': 6.58, 'Y': 1.0}",93.3,93.3,0.0,1,Y1 Ba1.8 Cs0.2 Cu3 O6.58
3889,[2291],Tl1Ba1.8La0.2Cu1O5-Z,Tl1Ba1.8La0.2Cu1O5,"{'Ba': 1.8, 'Cu': 1.0, 'La': 0.2, 'O': 5.0, 'Tl': 1.0}",42.0,42.0,0.0,1,Tl1 Ba1.8 La0.2 Cu1 O5
3890,[44],Y1.2Ba1.8Cu2O7-X,Y1.2Ba1.8Cu2O7,"{'Ba': 1.8, 'Cu': 2.0, 'O': 7.0, 'Y': 1.2}",92.0,92.0,0.0,1,Y1.2 Ba1.8 Cu2 O7
3891,[3118],Dy1Ba1.8Sr0.2Cu3O6.89,Dy1Ba1.8Sr0.2Cu3O6.89,"{'Ba': 1.8, 'Cu': 3.0, 'Dy': 1.0, 'O': 6.89, 'Sr': 0.2}",84.2,84.2,0.0,1,Dy1 Ba1.8 Sr0.2 Cu3 O6.89
3892,[9943],Eu1Ba1.8Pr0.2Cu3O6.69,Eu1Ba1.8Pr0.2Cu3O6.69,"{'Ba': 1.8, 'Cu': 3.0, 'Eu': 1.0, 'O': 6.69, 'Pr': 0.2}",46.0,46.0,0.0,1,Eu1 Ba1.8 Pr0.2 Cu3 O6.69
3893,[2903],Eu1.2Ba1.8Cu3O7.18,Eu1.2Ba1.8Cu3O7.18,"{'Ba': 1.8, 'Cu': 3.0, 'Eu': 1.2, 'O': 7.18}",42.0,42.0,0.0,1,Eu1.2 Ba1.8 Cu3 O7.18
3894,[9215],Gd0.8Ba1.8Cu3O7-z,Gd0.8Ba1.8Cu3O7,"{'Ba': 1.8, 'Cu': 3.0, 'Gd': 0.8, 'O': 7.0}",48.55,48.55,0.0,1,Gd0.8 Ba1.8 Cu3 O7
3895,[10844],Gd1Ba1.8Pr0.2Cu3O7.01,Gd1Ba1.8Pr0.2Cu3O7.01,"{'Ba': 1.8, 'Cu': 3.0, 'Gd': 1.0, 'O': 7.01, 'Pr': 0.2}",44.5,44.5,0.0,1,Gd1 Ba1.8 Pr0.2 Cu3 O7.01
3896,[11130],Gd1.2Ba1.8Cu3O7.03,Gd1.2Ba1.8Cu3O7.03,"{'Ba': 1.8, 'Cu': 3.0, 'Gd': 1.2, 'O': 7.03}",42.0,42.0,0.0,1,Gd1.2 Ba1.8 Cu3 O7.03
3897,[3968],Y1Ba1.8K0.2Cu3O6.57,Y1Ba1.8K0.2Cu3O6.57,"{'Ba': 1.8, 'Cu': 3.0, 'K': 0.2, 'O': 6.57, 'Y': 1.0}",93.0,93.0,0.0,1,Y1 Ba1.8 K0.2 Cu3 O6.57
3898,[4743],Y1Ba1.8La0.2Cu3O6.6,Y1Ba1.8La0.2Cu3O6.6,"{'Ba': 1.8, 'Cu': 3.0, 'La': 0.2, 'O': 6.6, 'Y': 1.0}",28.1,28.1,0.0,1,Y1 Ba1.8 La0.2 Cu3 O6.6
3899,[4742],Y1Ba1.8La0.2Cu3O6.7,Y1Ba1.8La0.2Cu3O6.7,"{'Ba': 1.8, 'Cu': 3.0, 'La': 0.2, 'O': 6.7, 'Y': 1.0}",44.3,44.3,0.0,1,Y1 Ba1.8 La0.2 Cu3 O6.7
3900,[4741],Y1Ba1.8La0.2Cu3O6.8,Y1Ba1.8La0.2Cu3O6.8,"{'Ba': 1.8, 'Cu': 3.0, 'La': 0.2, 'O': 6.8, 'Y': 1.0}",47.2,47.2,0.0,1,Y1 Ba1.8 La0.2 Cu3 O6.8
3901,[3985],Y1Ba1.8La0.2Cu3O6.81,Y1Ba1.8La0.2Cu3O6.81,"{'Ba': 1.8, 'Cu': 3.0, 'La': 0.2, 'O': 6.8100000000000005, 'Y': 1.0}",91.7,91.7,0.0,1,Y1 Ba1.8 La0.2 Cu3 O6.81
3902,[4740],Y1Ba1.8La0.2Cu3O6.85,Y1Ba1.8La0.2Cu3O6.85,"{'Ba': 1.8, 'Cu': 3.0, 'La': 0.2, 'O': 6.85, 'Y': 1.0}",51.4,51.4,0.0,1,Y1 Ba1.8 La0.2 Cu3 O6.85
3903,[4739],Y1Ba1.8La0.2Cu3O6.9,Y1Ba1.8La0.2Cu3O6.9,"{'Ba': 1.8, 'Cu': 3.0, 'La': 0.2, 'O': 6.9, 'Y': 1.0}",61.4,61.4,0.0,1,Y1 Ba1.8 La0.2 Cu3 O6.9
3904,[386],Y1Ba1.8La0.2Cu3O6.95,Y1Ba1.8La0.2Cu3O6.95,"{'Ba': 1.8, 'Cu': 3.0, 'La': 0.2, 'O': 6.95, 'Y': 1.0}",78.0,78.0,0.0,1,Y1 Ba1.8 La0.2 Cu3 O6.95
3905,"[4781, 9441]",Y1Ba1.8La0.2Cu3O6.96,Y1Ba1.8La0.2Cu3O6.96,"{'Ba': 1.8, 'Cu': 3.0, 'La': 0.2, 'O': 6.96, 'Y': 1.0}",82.0,80.0,2.0,2,Y1 Ba1.8 La0.2 Cu3 O6.96
3906,"[4738, 4751]",Y1Ba1.8La0.2Cu3O7,Y1Ba1.8La0.2Cu3O7,"{'Ba': 1.8, 'Cu': 3.0, 'La': 0.2, 'O': 7.0, 'Y': 1.0}",81.8,79.05,2.75,2,Y1 Ba1.8 La0.2 Cu3 O7
3907,[574],Y1Ba1.8La0.2Cu3O7.013,Y1Ba1.8La0.2Cu3O7.013,"{'Ba': 1.8, 'Cu': 3.0, 'La': 0.2, 'O': 7.013, 'Y': 1.0}",80.5,80.5,0.0,1,Y1 Ba1.8 La0.2 Cu3 O7.013
3908,"[9371, 9434]",Y1Ba1.8La0.2Cu3O7.03,Y1Ba1.8La0.2Cu3O7.03,"{'Ba': 1.8, 'Cu': 3.0, 'La': 0.2, 'O': 7.03, 'Y': 1.0}",89.0,88.85,0.15,2,Y1 Ba1.8 La0.2 Cu3 O7.03
3909,[2485],Y1Ba1.8La0.2Cu3O7.05,Y1Ba1.8La0.2Cu3O7.05,"{'Ba': 1.8, 'Cu': 3.0, 'La': 0.2, 'O': 7.05, 'Y': 1.0}",77.3,77.3,0.0,1,Y1 Ba1.8 La0.2 Cu3 O7.05
3910,[5814],Y1La0.2Ba1.8Cu3O7.06,Y1La0.2Ba1.8Cu3O7.06,"{'Ba': 1.8, 'Cu': 3.0, 'La': 0.2, 'O': 7.06, 'Y': 1.0}",48.9,48.9,0.0,1,Y1 La0.2 Ba1.8 Cu3 O7.06
3911,[5815],Y1La0.2Ba1.8Cu3O7.16,Y1La0.2Ba1.8Cu3O7.16,"{'Ba': 1.8, 'Cu': 3.0, 'La': 0.2, 'O': 7.16, 'Y': 1.0}",61.7,61.7,0.0,1,Y1 La0.2 Ba1.8 Cu3 O7.16
3912,[5816],Y1La0.2Ba1.8Cu3O7.26,Y1La0.2Ba1.8Cu3O7.26,"{'Ba': 1.8, 'Cu': 3.0, 'La': 0.2, 'O': 7.26, 'Y': 1.0}",67.6,67.6,0.0,1,Y1 La0.2 Ba1.8 Cu3 O7.26
3913,[5817],Y1La0.2Ba1.8Cu3O7.36,Y1La0.2Ba1.8Cu3O7.36,"{'Ba': 1.8, 'Cu': 3.0, 'La': 0.2, 'O': 7.36, 'Y': 1.0}",89.1,89.1,0.0,1,Y1 La0.2 Ba1.8 Cu3 O7.36
3914,[5818],Y1La0.2Ba1.8Cu3O7.46,Y1La0.2Ba1.8Cu3O7.46,"{'Ba': 1.8, 'Cu': 3.0, 'La': 0.2, 'O': 7.46, 'Y': 1.0}",89.8,89.8,0.0,1,Y1 La0.2 Ba1.8 Cu3 O7.46
3915,[5819],Y1La0.2Ba1.8Cu3O7.49,Y1La0.2Ba1.8Cu3O7.49,"{'Ba': 1.8, 'Cu': 3.0, 'La': 0.2, 'O': 7.49, 'Y': 1.0}",90.4,90.4,0.0,1,Y1 La0.2 Ba1.8 Cu3 O7.49
3916,[5820],Y1La0.2Ba1.8Cu3O7.57,Y1La0.2Ba1.8Cu3O7.57,"{'Ba': 1.8, 'Cu': 3.0, 'La': 0.2, 'O': 7.57, 'Y': 1.0}",89.6,89.6,0.0,1,Y1 La0.2 Ba1.8 Cu3 O7.57
3917,[5821],Y1La0.2Ba1.8Cu3O7.62,Y1La0.2Ba1.8Cu3O7.62,"{'Ba': 1.8, 'Cu': 3.0, 'La': 0.2, 'O': 7.62, 'Y': 1.0}",87.9,87.9,0.0,1,Y1 La0.2 Ba1.8 Cu3 O7.62
3918,[5822],Y1La0.2Ba1.8Cu3O7.64,Y1La0.2Ba1.8Cu3O7.64,"{'Ba': 1.8, 'Cu': 3.0, 'La': 0.2, 'O': 7.64, 'Y': 1.0}",88.1,88.1,0.0,1,Y1 La0.2 Ba1.8 Cu3 O7.64
3919,[5823],Y1La0.2Ba1.8Cu3O7.74,Y1La0.2Ba1.8Cu3O7.74,"{'Ba': 1.8, 'Cu': 3.0, 'La': 0.2, 'O': 7.74, 'Y': 1.0}",89.1,89.1,0.0,1,Y1 La0.2 Ba1.8 Cu3 O7.74
3920,[5824],Y1La0.2Ba1.8Cu3O7.77,Y1La0.2Ba1.8Cu3O7.77,"{'Ba': 1.8, 'Cu': 3.0, 'La': 0.2, 'O': 7.77, 'Y': 1.0}",89.8,89.8,0.0,1,Y1 La0.2 Ba1.8 Cu3 O7.77
3921,[5825],Y1La0.2Ba1.8Cu3O7.79,Y1La0.2Ba1.8Cu3O7.79,"{'Ba': 1.8, 'Cu': 3.0, 'La': 0.2, 'O': 7.79, 'Y': 1.0}",90.4,90.4,0.0,1,Y1 La0.2 Ba1.8 Cu3 O7.79
3922,[426],La1.2Ba1.8Cu3O6.98,La1.2Ba1.8Cu3O6.98,"{'Ba': 1.8, 'Cu': 3.0, 'La': 1.2, 'O': 6.98}",80.0,80.0,0.0,1,La1.2 Ba1.8 Cu3 O6.98
3923,[5826],La1.2Ba1.8Cu3O7.2,La1.2Ba1.8Cu3O7.2,"{'Ba': 1.8, 'Cu': 3.0, 'La': 1.2, 'O': 7.2}",27.0,27.0,0.0,1,La1.2 Ba1.8 Cu3 O7.2
3924,[5827],La1.2Ba1.8Cu3O7.3,La1.2Ba1.8Cu3O7.3,"{'Ba': 1.8, 'Cu': 3.0, 'La': 1.2, 'O': 7.3}",27.0,27.0,0.0,1,La1.2 Ba1.8 Cu3 O7.3
3925,[4839],Nd1Ba1.8Sr0.2Cu3O6.927,Nd1Ba1.8Sr0.2Cu3O6.927,"{'Ba': 1.8, 'Cu': 3.0, 'Nd': 1.0, 'O': 6.927, 'Sr': 0.2}",82.0,82.0,0.0,1,Nd1 Ba1.8 Sr0.2 Cu3 O6.927
3926,[11690],Nd1Ba1.8Sr0.2Cu3O6.96,Nd1Ba1.8Sr0.2Cu3O6.96,"{'Ba': 1.8, 'Cu': 3.0, 'Nd': 1.0, 'O': 6.96, 'Sr': 0.2}",91.1,91.1,0.0,1,Nd1 Ba1.8 Sr0.2 Cu3 O6.96
3927,[3732],Nd1.2Ba1.8Cu3O6.91,Nd1.2Ba1.8Cu3O6.91,"{'Ba': 1.8, 'Cu': 3.0, 'Nd': 1.2, 'O': 6.91}",47.6,47.6,0.0,1,Nd1.2 Ba1.8 Cu3 O6.91
3928,[4848],Nd1.2Ba1.8Cu3O6.954,Nd1.2Ba1.8Cu3O6.954,"{'Ba': 1.8, 'Cu': 3.0, 'Nd': 1.2, 'O': 6.954}",50.0,50.0,0.0,1,Nd1.2 Ba1.8 Cu3 O6.954
3929,[1239],Nd1.2Ba1.8Cu3O6.96,Nd1.2Ba1.8Cu3O6.96,"{'Ba': 1.8, 'Cu': 3.0, 'Nd': 1.2, 'O': 6.96}",80.0,80.0,0.0,1,Nd1.2 Ba1.8 Cu3 O6.96
3930,"[610, 2186, 7073]",Nd1.2Ba1.8Cu3O7-Z,Nd1.2Ba1.8Cu3O7,"{'Ba': 1.8, 'Cu': 3.0, 'Nd': 1.2, 'O': 7.0}",56.5,53.7666666667,3.5178907822000003,3,Nd1.2 Ba1.8 Cu3 O7
3931,[2896],Nd1.2Ba1.8Cu3O7.1,Nd1.2Ba1.8Cu3O7.1,"{'Ba': 1.8, 'Cu': 3.0, 'Nd': 1.2, 'O': 7.1}",43.5,43.5,0.0,1,Nd1.2 Ba1.8 Cu3 O7.1
3932,[6934],Ba1.8Sr0.2Yb1Cu3O6+z,Ba1.8Sr0.2Yb1Cu3O6,"{'Ba': 1.8, 'Cu': 3.0, 'O': 6.0, 'Sr': 0.2, 'Yb': 1.0}",85.6,85.6,0.0,1,Ba1.8 Sr0.2 Yb1 Cu3 O6
3933,[3971],Y1Ba1.8Rb0.2Cu3O6.56,Y1Ba1.8Rb0.2Cu3O6.56,"{'Ba': 1.8, 'Cu': 3.0, 'O': 6.5600000000000005, 'Rb': 0.2, 'Y': 1.0}",90.55,90.55,0.0,1,Y1 Ba1.8 Rb0.2 Cu3 O6.56
3934,[6939],Ba1.8Sr0.2Yb1Cu3O6.61,Ba1.8Sr0.2Yb1Cu3O6.61,"{'Ba': 1.8, 'Cu': 3.0, 'O': 6.61, 'Sr': 0.2, 'Yb': 1.0}",56.7,56.7,0.0,1,Ba1.8 Sr0.2 Yb1 Cu3 O6.61
3935,[3981],Y1Ba1.8Sc0.2Cu3O6.64,Y1Ba1.8Sc0.2Cu3O6.64,"{'Ba': 1.8, 'Cu': 3.0, 'O': 6.64, 'Sc': 0.2, 'Y': 1.0}",88.8,88.8,0.0,1,Y1 Ba1.8 Sc0.2 Cu3 O6.64
3936,[3983],Y1.2Ba1.8Cu3O6.68,Y1.2Ba1.8Cu3O6.68,"{'Ba': 1.8, 'Cu': 3.0, 'O': 6.68, 'Y': 1.2}",92.3,92.3,0.0,1,Y1.2 Ba1.8 Cu3 O6.68
3937,[1200],Y1Ba1.8Sr0.2Cu3O6.8,Y1Ba1.8Sr0.2Cu3O6.8,"{'Ba': 1.8, 'Cu': 3.0, 'O': 6.8, 'Sr': 0.2, 'Y': 1.0}",90.5,90.5,0.0,1,Y1 Ba1.8 Sr0.2 Cu3 O6.8
3938,[7995],Y0.6Pr0.4Ba1.8Sr0.2Cu3O6.85,Y0.6Pr0.4Ba1.8Sr0.2Cu3O6.85,"{'Ba': 1.8, 'Cu': 3.0, 'O': 6.85, 'Pr': 0.4, 'Sr': 0.2, 'Y': 0.6000000000000001}",47.0,47.0,0.0,1,Y0.6 Pr0.4 Ba1.8 Sr0.2 Cu3 O6.85
3939,[811],Sm1.2Ba1.8Cu3O6.965,Sm1.2Ba1.8Cu3O6.965,"{'Ba': 1.8, 'Cu': 3.0, 'O': 6.965, 'Sm': 1.2}",47.0,47.0,0.0,1,Sm1.2 Ba1.8 Cu3 O6.965
3940,[6911],Y1Ba1.8Sr0.2Cu3O6.98,Y1Ba1.8Sr0.2Cu3O6.98,"{'Ba': 1.8, 'Cu': 3.0, 'O': 6.98, 'Sr': 0.2, 'Y': 1.0}",89.0,89.0,0.0,1,Y1 Ba1.8 Sr0.2 Cu3 O6.98
3941,"[10379, 20376]",Y1Ba1.8Sr0.2Cu3O7-z,Y1Ba1.8Sr0.2Cu3O7,"{'Ba': 1.8, 'Cu': 3.0, 'O': 7.0, 'Sr': 0.2, 'Y': 1.0}",90.0,87.5,2.5,2,Y1 Ba1.8 Sr0.2 Cu3 O7
3942,[475],Sm1.2Ba1.8Cu3O7.01,Sm1.2Ba1.8Cu3O7.01,"{'Ba': 1.8, 'Cu': 3.0, 'O': 7.01, 'Sm': 1.2}",56.5,56.5,0.0,1,Sm1.2 Ba1.8 Cu3 O7.01
3943,[9651],Sm1Ba1.8Pr0.2Cu3O7.04,Sm1Ba1.8Pr0.2Cu3O7.04,"{'Ba': 1.8, 'Cu': 3.0, 'O': 7.04, 'Pr': 0.2, 'Sm': 1.0}",26.5,26.5,0.0,1,Sm1 Ba1.8 Pr0.2 Cu3 O7.04
3944,[2900],Sm1.2Ba1.8Cu3O7.09,Sm1.2Ba1.8Cu3O7.09,"{'Ba': 1.8, 'Cu': 3.0, 'O': 7.09, 'Sm': 1.2}",38.0,38.0,0.0,1,Sm1.2 Ba1.8 Cu3 O7.09
3945,[4769],Y1Ba1.8La0.2Cu3.5O7.5-z,Y1Ba1.8La0.2Cu3.5O7.5,"{'Ba': 1.8, 'Cu': 3.5, 'La': 0.2, 'O': 7.5, 'Y': 1.0}",50.7,50.7,0.0,1,Y1 Ba1.8 La0.2 Cu3.5 O7.5
3946,[8177],Y1Ba1.8La0.2Cu3.97Zn0.03O8,Y1Ba1.8La0.2Cu3.97Zn0.03O8,"{'Ba': 1.8, 'Cu': 3.9699999999999998, 'La': 0.2, 'O': 8.0, 'Y': 1.0, 'Zn': 0.03}",16.2,16.2,0.0,1,Y1 Ba1.8 La0.2 Cu3.97 Zn0.03 O8
3947,[6258],Gd1Ba1.8Sr0.2Cu4O8-Z,Gd1Ba1.8Sr0.2Cu4O8,"{'Ba': 1.8, 'Cu': 4.0, 'Gd': 1.0, 'O': 8.0, 'Sr': 0.2}",77.0,77.0,0.0,1,Gd1 Ba1.8 Sr0.2 Cu4 O8
3948,"[5736, 6260]",Ho1Sr0.2Ba1.8Cu4O8,Ho1Sr0.2Ba1.8Cu4O8,"{'Ba': 1.8, 'Cu': 4.0, 'Ho': 1.0, 'O': 8.0, 'Sr': 0.2}",82.0,75.4,6.6,2,Ho1 Sr0.2 Ba1.8 Cu4 O8
3949,[2016],Y1Ba1.8La0.2Cu4O7.9,Y1Ba1.8La0.2Cu4O7.9,"{'Ba': 1.8, 'Cu': 4.0, 'La': 0.2, 'O': 7.9, 'Y': 1.0}",60.1,60.1,0.0,1,Y1 Ba1.8 La0.2 Cu4 O7.9
3950,[8176],Y1Ba1.8La0.2Cu4O8,Y1Ba1.8La0.2Cu4O8,"{'Ba': 1.8, 'Cu': 4.0, 'La': 0.2, 'O': 8.0, 'Y': 1.0}",44.0,44.0,0.0,1,Y1 Ba1.8 La0.2 Cu4 O8
3951,[1193],Y1Ba1.8Sr0.2Cu4O7.9,Y1Ba1.8Sr0.2Cu4O7.9,"{'Ba': 1.8, 'Cu': 4.0, 'O': 7.9, 'Sr': 0.2, 'Y': 1.0}",78.0,78.0,0.0,1,Y1 Ba1.8 Sr0.2 Cu4 O7.9
3952,[7706],Y1Ba1.8Sr0.2Cu4O7.95,Y1Ba1.8Sr0.2Cu4O7.95,"{'Ba': 1.8, 'Cu': 4.0, 'O': 7.95, 'Sr': 0.2, 'Y': 1.0}",82.0,82.0,0.0,1,Y1 Ba1.8 Sr0.2 Cu4 O7.95
3953,"[7395, 10191, 10304]",Y1Ba1.8Sr0.2Cu4O8,Y1Ba1.8Sr0.2Cu4O8,"{'Ba': 1.8, 'Cu': 4.0, 'O': 8.0, 'Sr': 0.2, 'Y': 1.0}",79.8,77.7,1.4899664426,3,Y1 Ba1.8 Sr0.2 Cu4 O8
3954,"[2788, 3818]",Yb1Ba1.8Sr0.2Cu4O8,Yb1Ba1.8Sr0.2Cu4O8,"{'Ba': 1.8, 'Cu': 4.0, 'O': 8.0, 'Sr': 0.2, 'Yb': 1.0}",82.0,81.0,1.0,2,Yb1 Ba1.8 Sr0.2 Cu4 O8