,sc_id,supercon_formula,cleaned_formula,material_dict,highest_Tc,average_Tc,std_Tc,entry_count,composition
4300,[8313],Hg1.4Tl0.6Ba2Y0.8Ca0.2Cu2O7.83,Hg1.4Tl0.6Ba2Y0.8Ca0.2Cu2O7.83,"{'Ba': 2.0, 'Ca': 0.2, 'Cu': 2.0, 'Hg': 1.4, 'O': 7.83, 'Tl': 0.6000000000000001, 'Y': 0.8}",50.0,50.0,0.0,1,Hg1.4 Tl0.6 Ba2 Y0.8 Ca0.2 Cu2 O7.83
4301,[10170],Hg1.4Tl0.6Ba2Y0.8Ca0.2Cu2O8-z,Hg1.4Tl0.6Ba2Y0.8Ca0.2Cu2O8,"{'Ba': 2.0, 'Ca': 0.2, 'Cu': 2.0, 'Hg': 1.4, 'O': 8.0, 'Tl': 0.6000000000000001, 'Y': 0.8}",52.3,52.3,0.0,1,Hg1.4 Tl0.6 Ba2 Y0.8 Ca0.2 Cu2 O8
4302,[10985],Hg2Ba2Y0.8Ca0.2Cu2O8-z,Hg2Ba2Y0.8Ca0.2Cu2O8,"{'Ba': 2.0, 'Ca': 0.2, 'Cu': 2.0, 'Hg': 2.0, 'O': 8.0, 'Y': 0.8}",21.0,21.0,0.0,1,Hg2 Ba2 Y0.8 Ca0.2 Cu2 O8
4303,[8520],Dy0.8Ca0.2Ba2Cu2.7Zn0.3O6.78,Dy0.8Ca0.2Ba2Cu2.7Zn0.3O6.78,"{'Ba': 2.0, 'Ca': 0.2, 'Cu': 2.7, 'Dy': 0.8, 'O': 6.78, 'Zn': 0.30000000000000004}",28.0,28.0,0.0,1,Dy0.8 Ca0.2 Ba2 Cu2.7 Zn0.3 O6.78
4304,[4066],Y0.8Ca0.2Ba2Cu2.8Ni0.2O6.77,Y0.8Ca0.2Ba2Cu2.8Ni0.2O6.77,"{'Ba': 2.0, 'Ca': 0.2, 'Cu': 2.8, 'Ni': 0.2, 'O': 6.77, 'Y': 0.8}",64.0,64.0,0.0,1,Y0.8 Ca0.2 Ba2 Cu2.8 Ni0.2 O6.77
4305,[4075],Y0.8Ca0.2Ba2Cu2.8Zn0.2O6.73,Y0.8Ca0.2Ba2Cu2.8Zn0.2O6.73,"{'Ba': 2.0, 'Ca': 0.2, 'Cu': 2.8, 'O': 6.73, 'Y': 0.8, 'Zn': 0.2}",43.0,43.0,0.0,1,Y0.8 Ca0.2 Ba2 Cu2.8 Zn0.2 O6.73
4306,[22365],Y0.8Ca0.2Ba2Cu2.8Zn0.2O6.74,Y0.8Ca0.2Ba2Cu2.8Zn0.2O6.74,"{'Ba': 2.0, 'Ca': 0.2, 'Cu': 2.8, 'O': 6.74, 'Y': 0.8, 'Zn': 0.2}",44.0,44.0,0.0,1,Y0.8 Ca0.2 Ba2 Cu2.8 Zn0.2 O6.74
4307,[8518],Sm0.8Ca0.2Ba2Cu2.8Zn0.2O6.87,Sm0.8Ca0.2Ba2Cu2.8Zn0.2O6.87,"{'Ba': 2.0, 'Ca': 0.2, 'Cu': 2.8, 'O': 6.87, 'Sm': 0.8, 'Zn': 0.2}",45.0,45.0,0.0,1,Sm0.8 Ca0.2 Ba2 Cu2.8 Zn0.2 O6.87
4308,[8354],Y0.8Ca0.2Ba2Cu2.82Zn0.18O7-z,Y0.8Ca0.2Ba2Cu2.82Zn0.18O7,"{'Ba': 2.0, 'Ca': 0.2, 'Cu': 2.8200000000000003, 'O': 7.0, 'Y': 0.8, 'Zn': 0.18}",27.6,27.6,0.0,1,Y0.8 Ca0.2 Ba2 Cu2.82 Zn0.18 O7
4309,[8353],Y0.8Ca0.2Ba2Cu2.91Zn0.09O7-z,Y0.8Ca0.2Ba2Cu2.91Zn0.09O7,"{'Ba': 2.0, 'Ca': 0.2, 'Cu': 2.91, 'O': 7.0, 'Y': 0.8, 'Zn': 0.09}",51.4,51.4,0.0,1,Y0.8 Ca0.2 Ba2 Cu2.91 Zn0.09 O7
4310,[8352],Y0.8Ca0.2Ba2Cu2.955Zn0.045O7-z,Y0.8Ca0.2Ba2Cu2.955Zn0.045O7,"{'Ba': 2.0, 'Ca': 0.2, 'Cu': 2.955, 'O': 7.0, 'Y': 0.8, 'Zn': 0.045}",64.2,64.2,0.0,1,Y0.8 Ca0.2 Ba2 Cu2.955 Zn0.045 O7
4311,[9051],Er0.6Pr0.2Ca0.2Ba2Cu3O7-Z,Er0.6Pr0.2Ca0.2Ba2Cu3O7,"{'Ba': 2.0, 'Ca': 0.2, 'Cu': 3.0, 'Er': 0.6000000000000001, 'O': 7.0, 'Pr': 0.2}",74.0,74.0,0.0,1,Er0.6 Pr0.2 Ca0.2 Ba2 Cu3 O7
4312,[4868],Er0.65Ca0.2Hf0.15Ba2Cu3O6.83,Er0.65Ca0.2Hf0.15Ba2Cu3O6.83,"{'Ba': 2.0, 'Ca': 0.2, 'Cu': 3.0, 'Er': 0.65, 'Hf': 0.15, 'O': 6.83}",80.9,80.9,0.0,1,Er0.65 Ca0.2 Hf0.15 Ba2 Cu3 O6.83
4313,[9056],Er0.7Pr0.1Ca0.2Ba2Cu3O7-Z,Er0.7Pr0.1Ca0.2Ba2Cu3O7,"{'Ba': 2.0, 'Ca': 0.2, 'Cu': 3.0, 'Er': 0.7000000000000001, 'O': 7.0, 'Pr': 0.1}",73.0,73.0,0.0,1,Er0.7 Pr0.1 Ca0.2 Ba2 Cu3 O7
4314,[3857],Er0.8Ca0.2Ba2Cu3O6.91,Er0.8Ca0.2Ba2Cu3O6.91,"{'Ba': 2.0, 'Ca': 0.2, 'Cu': 3.0, 'Er': 0.8, 'O': 6.91}",76.5,76.5,0.0,1,Er0.8 Ca0.2 Ba2 Cu3 O6.91
4315,[7105],Gd0.65Ca0.2Hf0.15Ba2Cu3O6.96,Gd0.65Ca0.2Hf0.15Ba2Cu3O6.96,"{'Ba': 2.0, 'Ca': 0.2, 'Cu': 3.0, 'Gd': 0.65, 'Hf': 0.15, 'O': 6.96}",86.3,86.3,0.0,1,Gd0.65 Ca0.2 Hf0.15 Ba2 Cu3 O6.96
4316,[6825],Gd0.65Ca0.2Mo0.15Ba2Cu3O6.818,Gd0.65Ca0.2Mo0.15Ba2Cu3O6.818,"{'Ba': 2.0, 'Ca': 0.2, 'Cu': 3.0, 'Gd': 0.65, 'Mo': 0.15, 'O': 6.818}",84.1,84.1,0.0,1,Gd0.65 Ca0.2 Mo0.15 Ba2 Cu3 O6.818
4317,[10090],Gd0.65Pr0.15Ca0.2Ba2Cu3O7-z,Gd0.65Pr0.15Ca0.2Ba2Cu3O7,"{'Ba': 2.0, 'Ca': 0.2, 'Cu': 3.0, 'Gd': 0.65, 'O': 7.0, 'Pr': 0.15}",66.6,66.6,0.0,1,Gd0.65 Pr0.15 Ca0.2 Ba2 Cu3 O7
4318,[10084],Gd0.7Pr0.1Ca0.2Ba2Cu3O7-z,Gd0.7Pr0.1Ca0.2Ba2Cu3O7,"{'Ba': 2.0, 'Ca': 0.2, 'Cu': 3.0, 'Gd': 0.7000000000000001, 'O': 7.0, 'Pr': 0.1}",69.0,69.0,0.0,1,Gd0.7 Pr0.1 Ca0.2 Ba2 Cu3 O7
4319,[10079],Gd0.8Ca0.2Ba2Cu3O7-z,Gd0.8Ca0.2Ba2Cu3O7,"{'Ba': 2.0, 'Ca': 0.2, 'Cu': 3.0, 'Gd': 0.8, 'O': 7.0}",68.8,68.8,0.0,1,Gd0.8 Ca0.2 Ba2 Cu3 O7
4320,[5697],Lu0.8Ca0.2Ba2Cu3O6.13,Lu0.8Ca0.2Ba2Cu3O6.13,"{'Ba': 2.0, 'Ca': 0.2, 'Cu': 3.0, 'Lu': 0.8, 'O': 6.13}",41.0,41.0,0.0,1,Lu0.8 Ca0.2 Ba2 Cu3 O6.13
4321,[5700],Lu0.8Ca0.2Ba2Cu3O6.54,Lu0.8Ca0.2Ba2Cu3O6.54,"{'Ba': 2.0, 'Ca': 0.2, 'Cu': 3.0, 'Lu': 0.8, 'O': 6.54}",65.0,65.0,0.0,1,Lu0.8 Ca0.2 Ba2 Cu3 O6.54
4322,[5704],Lu0.8Ca0.2Ba2Cu3O6.68,Lu0.8Ca0.2Ba2Cu3O6.68,"{'Ba': 2.0, 'Ca': 0.2, 'Cu': 3.0, 'Lu': 0.8, 'O': 6.68}",78.0,78.0,0.0,1,Lu0.8 Ca0.2 Ba2 Cu3 O6.68
4323,[5702],Lu0.8Ca0.2Ba2Cu3O6.81,Lu0.8Ca0.2Ba2Cu3O6.81,"{'Ba': 2.0, 'Ca': 0.2, 'Cu': 3.0, 'Lu': 0.8, 'O': 6.8100000000000005}",52.0,52.0,0.0,1,Lu0.8 Ca0.2 Ba2 Cu3 O6.81
4324,[5706],Lu0.8Ca0.2Ba2Cu3O6.91,Lu0.8Ca0.2Ba2Cu3O6.91,"{'Ba': 2.0, 'Ca': 0.2, 'Cu': 3.0, 'Lu': 0.8, 'O': 6.91}",48.0,48.0,0.0,1,Lu0.8 Ca0.2 Ba2 Cu3 O6.91
4325,[4431],Y0.8Ca0.2Ba2Cu3O6,Y0.8Ca0.2Ba2Cu3O6,"{'Ba': 2.0, 'Ca': 0.2, 'Cu': 3.0, 'O': 6.0, 'Y': 0.8}",24.0,24.0,0.0,1,Y0.8 Ca0.2 Ba2 Cu3 O6
4326,[5853],Y0.8Ca0.2Ba2Cu3O6.03,Y0.8Ca0.2Ba2Cu3O6.03,"{'Ba': 2.0, 'Ca': 0.2, 'Cu': 3.0, 'O': 6.03, 'Y': 0.8}",43.5,43.5,0.0,1,Y0.8 Ca0.2 Ba2 Cu3 O6.03
4327,[2324],Y0.8Ca0.2Ba2Cu3O6.1,Y0.8Ca0.2Ba2Cu3O6.1,"{'Ba': 2.0, 'Ca': 0.2, 'Cu': 3.0, 'O': 6.1, 'Y': 0.8}",50.0,50.0,0.0,1,Y0.8 Ca0.2 Ba2 Cu3 O6.1
4328,[4730],Y0.8Ca0.2Ba2Cu3O6.3,Y0.8Ca0.2Ba2Cu3O6.3,"{'Ba': 2.0, 'Ca': 0.2, 'Cu': 3.0, 'O': 6.3, 'Y': 0.8}",40.6,40.6,0.0,1,Y0.8 Ca0.2 Ba2 Cu3 O6.3
4329,[11262],Y0.8Ca0.2Ba2Cu3O6.32,Y0.8Ca0.2Ba2Cu3O6.32,"{'Ba': 2.0, 'Ca': 0.2, 'Cu': 3.0, 'O': 6.32, 'Y': 0.8}",25.8,25.8,0.0,1,Y0.8 Ca0.2 Ba2 Cu3 O6.32
4330,[4729],Y0.8Ca0.2Ba2Cu3O6.4,Y0.8Ca0.2Ba2Cu3O6.4,"{'Ba': 2.0, 'Ca': 0.2, 'Cu': 3.0, 'O': 6.4, 'Y': 0.8}",52.6,52.6,0.0,1,Y0.8 Ca0.2 Ba2 Cu3 O6.4
4331,[11261],Y0.8Ca0.2Ba2Cu3O6.41,Y0.8Ca0.2Ba2Cu3O6.41,"{'Ba': 2.0, 'Ca': 0.2, 'Cu': 3.0, 'O': 6.41, 'Y': 0.8}",32.4,32.4,0.0,1,Y0.8 Ca0.2 Ba2 Cu3 O6.41
4332,[11260],Y0.8Ca0.2Ba2Cu3O6.49,Y0.8Ca0.2Ba2Cu3O6.49,"{'Ba': 2.0, 'Ca': 0.2, 'Cu': 3.0, 'O': 6.49, 'Y': 0.8}",61.0,61.0,0.0,1,Y0.8 Ca0.2 Ba2 Cu3 O6.49
4333,"[4728, 5851]",Y0.8Ca0.2Ba2Cu3O6.5,Y0.8Ca0.2Ba2Cu3O6.5,"{'Ba': 2.0, 'Ca': 0.2, 'Cu': 3.0, 'O': 6.5, 'Y': 0.8}",84.8,73.35,11.45,2,Y0.8 Ca0.2 Ba2 Cu3 O6.5
4334,[11259],Y0.8Ca0.2Ba2Cu3O6.51,Y0.8Ca0.2Ba2Cu3O6.51,"{'Ba': 2.0, 'Ca': 0.2, 'Cu': 3.0, 'O': 6.51, 'Y': 0.8}",62.6,62.6,0.0,1,Y0.8 Ca0.2 Ba2 Cu3 O6.51
4335,[6221],Y0.8Ca0.2Ba2Cu3O6.53,Y0.8Ca0.2Ba2Cu3O6.53,"{'Ba': 2.0, 'Ca': 0.2, 'Cu': 3.0, 'O': 6.53, 'Y': 0.8}",80.9,80.9,0.0,1,Y0.8 Ca0.2 Ba2 Cu3 O6.53
4336,[11258],Y0.8Ca0.2Ba2Cu3O6.59,Y0.8Ca0.2Ba2Cu3O6.59,"{'Ba': 2.0, 'Ca': 0.2, 'Cu': 3.0, 'O': 6.59, 'Y': 0.8}",67.3,67.3,0.0,1,Y0.8 Ca0.2 Ba2 Cu3 O6.59
4337,[4727],Y0.8Ca0.2Ba2Cu3O6.6,Y0.8Ca0.2Ba2Cu3O6.6,"{'Ba': 2.0, 'Ca': 0.2, 'Cu': 3.0, 'O': 6.6, 'Y': 0.8}",72.1,72.1,0.0,1,Y0.8 Ca0.2 Ba2 Cu3 O6.6
4338,[4924],Y0.8Ca0.2Ba2Cu3O6.64,Y0.8Ca0.2Ba2Cu3O6.64,"{'Ba': 2.0, 'Ca': 0.2, 'Cu': 3.0, 'O': 6.64, 'Y': 0.8}",81.0,81.0,0.0,1,Y0.8 Ca0.2 Ba2 Cu3 O6.64
4339,[4726],Y0.8Ca0.2Ba2Cu3O6.7,Y0.8Ca0.2Ba2Cu3O6.7,"{'Ba': 2.0, 'Ca': 0.2, 'Cu': 3.0, 'O': 6.7, 'Y': 0.8}",76.7,76.7,0.0,1,Y0.8 Ca0.2 Ba2 Cu3 O6.7
4340,[11257],Y0.8Ca0.2Ba2Cu3O6.78,Y0.8Ca0.2Ba2Cu3O6.78,"{'Ba': 2.0, 'Ca': 0.2, 'Cu': 3.0, 'O': 6.78, 'Y': 0.8}",84.2,84.2,0.0,1,Y0.8 Ca0.2 Ba2 Cu3 O6.78
4341,[4725],Y0.8Ca0.2Ba2Cu3O6.8,Y0.8Ca0.2Ba2Cu3O6.8,"{'Ba': 2.0, 'Ca': 0.2, 'Cu': 3.0, 'O': 6.8, 'Y': 0.8}",84.1,84.1,0.0,1,Y0.8 Ca0.2 Ba2 Cu3 O6.8
4342,[11256],Y0.8Ca0.2Ba2Cu3O6.84,Y0.8Ca0.2Ba2Cu3O6.84,"{'Ba': 2.0, 'Ca': 0.2, 'Cu': 3.0, 'O': 6.84, 'Y': 0.8}",82.0,82.0,0.0,1,Y0.8 Ca0.2 Ba2 Cu3 O6.84
4343,[4911],Y0.8Ca0.2Ba2Cu3O6.86,Y0.8Ca0.2Ba2Cu3O6.86,"{'Ba': 2.0, 'Ca': 0.2, 'Cu': 3.0, 'O': 6.86, 'Y': 0.8}",79.0,79.0,0.0,1,Y0.8 Ca0.2 Ba2 Cu3 O6.86
4344,[6214],Y0.8Ca0.2Ba2Cu3O6.89,Y0.8Ca0.2Ba2Cu3O6.89,"{'Ba': 2.0, 'Ca': 0.2, 'Cu': 3.0, 'O': 6.89, 'Y': 0.8}",78.2,78.2,0.0,1,Y0.8 Ca0.2 Ba2 Cu3 O6.89
4345,"[4724, 8064]",Y0.8Ca0.2Ba2Cu3O6.9,Y0.8Ca0.2Ba2Cu3O6.9,"{'Ba': 2.0, 'Ca': 0.2, 'Cu': 3.0, 'O': 6.9, 'Y': 0.8}",82.9,78.4,4.5,2,Y0.8 Ca0.2 Ba2 Cu3 O6.9
4346,[1438],Y0.6Ca0.2Pr0.2Ba2Cu3O6.95,Y0.6Ca0.2Pr0.2Ba2Cu3O6.95,"{'Ba': 2.0, 'Ca': 0.2, 'Cu': 3.0, 'O': 6.95, 'Pr': 0.2, 'Y': 0.6000000000000001}",72.9,72.9,0.0,1,Y0.6 Ca0.2 Pr0.2 Ba2 Cu3 O6.95
4347,"[2234, 2535, 8094]",Y0.6Pr0.2Ca0.2Ba2Cu3O7-Z,Y0.6Pr0.2Ca0.2Ba2Cu3O7,"{'Ba': 2.0, 'Ca': 0.2, 'Cu': 3.0, 'O': 7.0, 'Pr': 0.2, 'Y': 0.6000000000000001}",71.2,56.0666666667,18.5781831428,3,Y0.6 Pr0.2 Ca0.2 Ba2 Cu3 O7
4348,"[4723, 5189, 8351]",Y0.8Ca0.2Ba2Cu3O7,Y0.8Ca0.2Ba2Cu3O7,"{'Ba': 2.0, 'Ca': 0.2, 'Cu': 3.0, 'O': 7.0, 'Y': 0.8}",84.6,76.3666666667,5.8459862774,3,Y0.8 Ca0.2 Ba2 Cu3 O7
4349,[1123],Ho0.8Ca0.2Ba2Cu4O8,Ho0.8Ca0.2Ba2Cu4O8,"{'Ba': 2.0, 'Ca': 0.2, 'Cu': 4.0, 'Ho': 0.8, 'O': 8.0}",87.0,87.0,0.0,1,Ho0.8 Ca0.2 Ba2 Cu4 O8
4350,"[1129, 7201]",Y0.8Ca0.2Ba2Cu4O8,Y0.8Ca0.2Ba2Cu4O8,"{'Ba': 2.0, 'Ca': 0.2, 'Cu': 4.0, 'O': 8.0, 'Y': 0.8}",90.0,87.8,2.2,2,Y0.8 Ca0.2 Ba2 Cu4 O8
4351,[7360],La1.9Er0.1Ba2Ca0.2Cu4.2O9.85,La1.9Er0.1Ba2Ca0.2Cu4.2O9.85,"{'Ba': 2.0, 'Ca': 0.2, 'Cu': 4.2, 'Er': 0.1, 'La': 1.9, 'O': 9.85}",18.0,18.0,0.0,1,La1.9 Er0.1 Ba2 Ca0.2 Cu4.2 O9.85
4352,[7369],La1.9Gd0.1Ba2Ca0.2Cu4.2O9.839,La1.9Gd0.1Ba2Ca0.2Cu4.2O9.839,"{'Ba': 2.0, 'Ca': 0.2, 'Cu': 4.2, 'Gd': 0.1, 'La': 1.9, 'O': 9.839}",15.0,15.0,0.0,1,La1.9 Gd0.1 Ba2 Ca0.2 Cu4.2 O9.839
4353,[7411],La1.9Gd0.1Ca0.2Ba2Cu4.2O10+z,La1.9Gd0.1Ca0.2Ba2Cu4.2O10,"{'Ba': 2.0, 'Ca': 0.2, 'Cu': 4.2, 'Gd': 0.1, 'La': 1.9, 'O': 10.0}",22.0,22.0,0.0,1,La1.9 Gd0.1 Ca0.2 Ba2 Cu4.2 O10
4354,[10946],La1.9Pr0.1Ca0.2Ba2Cu4.2O9.8786,La1.9Pr0.1Ca0.2Ba2Cu4.2O9.8786,"{'Ba': 2.0, 'Ca': 0.2, 'Cu': 4.2, 'La': 1.9, 'O': 9.8786, 'Pr': 0.1}",25.5,25.5,0.0,1,La1.9 Pr0.1 Ca0.2 Ba2 Cu4.2 O9.8786
4355,"[4432, 9839]",Y0.77Ca0.23Ba2Cu3O6,Y0.77Ca0.23Ba2Cu3O6,"{'Ba': 2.0, 'Ca': 0.23, 'Cu': 3.0, 'O': 6.0, 'Y': 0.77}",25.15,12.575,12.575,2,Y0.77 Ca0.23 Ba2 Cu3 O6
4356,[3152],Y0.76Ca0.24Ba2Cu2.94Co0.06O6.81,Y0.76Ca0.24Ba2Cu2.94Co0.06O6.81,"{'Ba': 2.0, 'Ca': 0.24, 'Co': 0.06, 'Cu': 2.94, 'O': 6.8100000000000005, 'Y': 0.76}",82.0,82.0,0.0,1,Y0.76 Ca0.24 Ba2 Cu2.94 Co0.06 O6.81
4357,"[3153, 3166]",Y0.76Ca0.24Ba2Cu2.85Co0.15O6.8,Y0.76Ca0.24Ba2Cu2.85Co0.15O6.8,"{'Ba': 2.0, 'Ca': 0.24, 'Co': 0.15, 'Cu': 2.85, 'O': 6.8, 'Y': 0.76}",86.0,86.0,0.0,2,Y0.76 Ca0.24 Ba2 Cu2.85 Co0.15 O6.8
4358,[5489],Er0.76Ca0.24Ba2Cu2.76Co0.24O6.92,Er0.76Ca0.24Ba2Cu2.76Co0.24O6.92,"{'Ba': 2.0, 'Ca': 0.24, 'Co': 0.24, 'Cu': 2.76, 'Er': 0.76, 'O': 6.92}",84.0,84.0,0.0,1,Er0.76 Ca0.24 Ba2 Cu2.76 Co0.24 O6.92
4359,"[3154, 3169]",Y0.76Ca0.24Ba2Cu2.76Co0.24O6.84,Y0.76Ca0.24Ba2Cu2.76Co0.24O6.84,"{'Ba': 2.0, 'Ca': 0.24, 'Co': 0.24, 'Cu': 2.76, 'O': 6.84, 'Y': 0.76}",85.0,85.0,0.0,2,Y0.76 Ca0.24 Ba2 Cu2.76 Co0.24 O6.84
4360,[3155],Y0.76Ca0.24Ba2Cu2.64Co0.36O6.96,Y0.76Ca0.24Ba2Cu2.64Co0.36O6.96,"{'Ba': 2.0, 'Ca': 0.24, 'Co': 0.36, 'Cu': 2.64, 'O': 6.96, 'Y': 0.76}",66.0,66.0,0.0,1,Y0.76 Ca0.24 Ba2 Cu2.64 Co0.36 O6.96
4361,[3159],Y0.76Ca0.24Ba2Cu2.55Co0.45O6.93,Y0.76Ca0.24Ba2Cu2.55Co0.45O6.93,"{'Ba': 2.0, 'Ca': 0.24, 'Co': 0.45, 'Cu': 2.55, 'O': 6.93, 'Y': 0.76}",51.0,51.0,0.0,1,Y0.76 Ca0.24 Ba2 Cu2.55 Co0.45 O6.93
4362,[6583],Y0.75Ca0.25Ba2Cu2.75Co0.25O6.8,Y0.75Ca0.25Ba2Cu2.75Co0.25O6.8,"{'Ba': 2.0, 'Ca': 0.25, 'Co': 0.25, 'Cu': 2.75, 'O': 6.8, 'Y': 0.75}",61.0,61.0,0.0,1,Y0.75 Ca0.25 Ba2 Cu2.75 Co0.25 O6.8
4363,[6576],Y0.75Ca0.25Ba2Cu2.75Co0.25O6.82,Y0.75Ca0.25Ba2Cu2.75Co0.25O6.82,"{'Ba': 2.0, 'Ca': 0.25, 'Co': 0.25, 'Cu': 2.75, 'O': 6.82, 'Y': 0.75}",67.5,67.5,0.0,1,Y0.75 Ca0.25 Ba2 Cu2.75 Co0.25 O6.82
4364,[9323],Y0.75Ca0.25Ba2Cu2.75Co0.25O6.98,Y0.75Ca0.25Ba2Cu2.75Co0.25O6.98,"{'Ba': 2.0, 'Ca': 0.25, 'Co': 0.25, 'Cu': 2.75, 'O': 6.98, 'Y': 0.75}",82.4,82.4,0.0,1,Y0.75 Ca0.25 Ba2 Cu2.75 Co0.25 O6.98
4365,[6569],Y0.75Ca0.25Ba2Cu2.75Co0.25O7,Y0.75Ca0.25Ba2Cu2.75Co0.25O7,"{'Ba': 2.0, 'Ca': 0.25, 'Co': 0.25, 'Cu': 2.75, 'O': 7.0, 'Y': 0.75}",82.5,82.5,0.0,1,Y0.75 Ca0.25 Ba2 Cu2.75 Co0.25 O7
4366,[4067],Y0.75Ca0.25Ba2Cu2.75Ni0.25O6.77,Y0.75Ca0.25Ba2Cu2.75Ni0.25O6.77,"{'Ba': 2.0, 'Ca': 0.25, 'Cu': 2.75, 'Ni': 0.25, 'O': 6.77, 'Y': 0.75}",62.0,62.0,0.0,1,Y0.75 Ca0.25 Ba2 Cu2.75 Ni0.25 O6.77
4367,[4076],Y0.75Ca0.25Ba2Cu2.75Zn0.25O6.76,Y0.75Ca0.25Ba2Cu2.75Zn0.25O6.76,"{'Ba': 2.0, 'Ca': 0.25, 'Cu': 2.75, 'O': 6.76, 'Y': 0.75, 'Zn': 0.25}",42.0,42.0,0.0,1,Y0.75 Ca0.25 Ba2 Cu2.75 Zn0.25 O6.76
4368,[4869],Er0.6Ca0.25Hf0.15Ba2Cu3O7.02,Er0.6Ca0.25Hf0.15Ba2Cu3O7.02,"{'Ba': 2.0, 'Ca': 0.25, 'Cu': 3.0, 'Er': 0.6000000000000001, 'Hf': 0.15, 'O': 7.02}",84.7,84.7,0.0,1,Er0.6 Ca0.25 Hf0.15 Ba2 Cu3 O7.02
4369,[3858],Er0.75Ca0.25Ba2Cu3O6.88,Er0.75Ca0.25Ba2Cu3O6.88,"{'Ba': 2.0, 'Ca': 0.25, 'Cu': 3.0, 'Er': 0.75, 'O': 6.88}",67.5,67.5,0.0,1,Er0.75 Ca0.25 Ba2 Cu3 O6.88
4370,[7106],Gd0.6Ca0.25Hf0.15Ba2Cu3O7,Gd0.6Ca0.25Hf0.15Ba2Cu3O7,"{'Ba': 2.0, 'Ca': 0.25, 'Cu': 3.0, 'Gd': 0.6000000000000001, 'Hf': 0.15, 'O': 7.0}",81.3,81.3,0.0,1,Gd0.6 Ca0.25 Hf0.15 Ba2 Cu3 O7
4371,[6826],Gd0.6Ca0.25Mo0.15Ba2Cu3O6.761,Gd0.6Ca0.25Mo0.15Ba2Cu3O6.761,"{'Ba': 2.0, 'Ca': 0.25, 'Cu': 3.0, 'Gd': 0.6000000000000001, 'Mo': 0.15, 'O': 6.761}",83.7,83.7,0.0,1,Gd0.6 Ca0.25 Mo0.15 Ba2 Cu3 O6.761
4372,[10091],Gd0.6Pr0.15Ca0.25Ba2Cu3O7-z,Gd0.6Pr0.15Ca0.25Ba2Cu3O7,"{'Ba': 2.0, 'Ca': 0.25, 'Cu': 3.0, 'Gd': 0.6000000000000001, 'O': 7.0, 'Pr': 0.15}",61.5,61.5,0.0,1,Gd0.6 Pr0.15 Ca0.25 Ba2 Cu3 O7
4373,[10085],Gd0.65Pr0.1Ca0.25Ba2Cu3O7-z,Gd0.65Pr0.1Ca0.25Ba2Cu3O7,"{'Ba': 2.0, 'Ca': 0.25, 'Cu': 3.0, 'Gd': 0.65, 'O': 7.0, 'Pr': 0.1}",60.2,60.2,0.0,1,Gd0.65 Pr0.1 Ca0.25 Ba2 Cu3 O7
4374,[4433],Y0.75Ca0.25Ba2Cu3O6.008,Y0.75Ca0.25Ba2Cu3O6.008,"{'Ba': 2.0, 'Ca': 0.25, 'Cu': 3.0, 'O': 6.008, 'Y': 0.75}",34.85,34.85,0.0,1,Y0.75 Ca0.25 Ba2 Cu3 O6.008
4375,[8095],Y1.55Pr0.2Ca0.25Ba2Cu3O7-d,Y1.55Pr0.2Ca0.25Ba2Cu3O7,"{'Ba': 2.0, 'Ca': 0.25, 'Cu': 3.0, 'O': 7.0, 'Pr': 0.2, 'Y': 1.55}",20.2,20.2,0.0,1,Y1.55 Pr0.2 Ca0.25 Ba2 Cu3 O7
4376,[7202],Y0.75Ca0.25Ba2Cu4O8,Y0.75Ca0.25Ba2Cu4O8,"{'Ba': 2.0, 'Ca': 0.25, 'Cu': 4.0, 'O': 8.0, 'Y': 0.75}",82.9,82.9,0.0,1,Y0.75 Ca0.25 Ba2 Cu4 O8
4377,[4458],Y0.74Ca0.26Ba2Cu3O6,Y0.74Ca0.26Ba2Cu3O6,"{'Ba': 2.0, 'Ca': 0.26, 'Cu': 3.0, 'O': 6.0, 'Y': 0.74}",44.7,44.7,0.0,1,Y0.74 Ca0.26 Ba2 Cu3 O6
4378,"[10161, 10162]",Hg1.5Pb0.5Ba2Y0.72Ca0.28Cu2O8-z,Hg1.5Pb0.5Ba2Y0.72Ca0.28Cu2O8,"{'Ba': 2.0, 'Ca': 0.28, 'Cu': 2.0, 'Hg': 1.5, 'O': 8.0, 'Pb': 0.5, 'Y': 0.72}",82.1,78.3,3.8,2,Hg1.5 Pb0.5 Ba2 Y0.72 Ca0.28 Cu2 O8
4379,[4459],Y0.72Ca0.28Ba2Cu3O6,Y0.72Ca0.28Ba2Cu3O6,"{'Ba': 2.0, 'Ca': 0.28, 'Cu': 3.0, 'O': 6.0, 'Y': 0.72}",47.5,47.5,0.0,1,Y0.72 Ca0.28 Ba2 Cu3 O6
4380,[6584],Y0.7Ca0.3Ba2Cu2.7Co0.3O6.78,Y0.7Ca0.3Ba2Cu2.7Co0.3O6.78,"{'Ba': 2.0, 'Ca': 0.30000000000000004, 'Co': 0.30000000000000004, 'Cu': 2.7, 'O': 6.78, 'Y': 0.7000000000000001}",59.0,59.0,0.0,1,Y0.7 Ca0.3 Ba2 Cu2.7 Co0.3 O6.78
4381,[6577],Y0.7Ca0.3Ba2Cu2.7Co0.3O6.84,Y0.7Ca0.3Ba2Cu2.7Co0.3O6.84,"{'Ba': 2.0, 'Ca': 0.30000000000000004, 'Co': 0.30000000000000004, 'Cu': 2.7, 'O': 6.84, 'Y': 0.7000000000000001}",70.0,70.0,0.0,1,Y0.7 Ca0.3 Ba2 Cu2.7 Co0.3 O6.84
4382,[3170],Y0.7Ca0.3Ba2Cu2.7Co0.3O6.93,Y0.7Ca0.3Ba2Cu2.7Co0.3O6.93,"{'Ba': 2.0, 'Ca': 0.30000000000000004, 'Co': 0.30000000000000004, 'Cu': 2.7, 'O': 6.93, 'Y': 0.7000000000000001}",84.0,84.0,0.0,1,Y0.7 Ca0.3 Ba2 Cu2.7 Co0.3 O6.93
4383,[6570],Y0.7Ca0.3Ba2Cu2.7Co0.3O7.02,Y0.7Ca0.3Ba2Cu2.7Co0.3O7.02,"{'Ba': 2.0, 'Ca': 0.30000000000000004, 'Co': 0.30000000000000004, 'Cu': 2.7, 'O': 7.02, 'Y': 0.7000000000000001}",82.0,82.0,0.0,1,Y0.7 Ca0.3 Ba2 Cu2.7 Co0.3 O7.02
4384,[3160],Y0.7Ca0.3Ba2Cu2.55Co0.45O6.84,Y0.7Ca0.3Ba2Cu2.55Co0.45O6.84,"{'Ba': 2.0, 'Ca': 0.30000000000000004, 'Co': 0.45, 'Cu': 2.55, 'O': 6.84, 'Y': 0.7000000000000001}",53.0,53.0,0.0,1,Y0.7 Ca0.3 Ba2 Cu2.55 Co0.45 O6.84
4385,[8314],Hg1.4Tl0.6Ba2Y0.7Ca0.3Cu2O7.81,Hg1.4Tl0.6Ba2Y0.7Ca0.3Cu2O7.81,"{'Ba': 2.0, 'Ca': 0.30000000000000004, 'Cu': 2.0, 'Hg': 1.4, 'O': 7.8100000000000005, 'Tl': 0.6000000000000001, 'Y': 0.7000000000000001}",74.5,74.5,0.0,1,Hg1.4 Tl0.6 Ba2 Y0.7 Ca0.3 Cu2 O7.81
4386,"[4988, 10171]",Hg1.4Tl0.6Ba2Y0.7Ca0.3Cu2O8-z,Hg1.4Tl0.6Ba2Y0.7Ca0.3Cu2O8,"{'Ba': 2.0, 'Ca': 0.30000000000000004, 'Cu': 2.0, 'Hg': 1.4, 'O': 8.0, 'Tl': 0.6000000000000001, 'Y': 0.7000000000000001}",75.3,67.65,7.65,2,Hg1.4 Tl0.6 Ba2 Y0.7 Ca0.3 Cu2 O8
4387,[10163],Hg1.5Pb0.5Ba2Y0.7Ca0.3Cu2O8-z,Hg1.5Pb0.5Ba2Y0.7Ca0.3Cu2O8,"{'Ba': 2.0, 'Ca': 0.30000000000000004, 'Cu': 2.0, 'Hg': 1.5, 'O': 8.0, 'Pb': 0.5, 'Y': 0.7000000000000001}",84.3,84.3,0.0,1,Hg1.5 Pb0.5 Ba2 Y0.7 Ca0.3 Cu2 O8
4388,[10423],Hg1.75Pb0.25Ba2Y0.7Ca0.3Cu2O8-z,Hg1.75Pb0.25Ba2Y0.7Ca0.3Cu2O8,"{'Ba': 2.0, 'Ca': 0.30000000000000004, 'Cu': 2.0, 'Hg': 1.75, 'O': 8.0, 'Pb': 0.25, 'Y': 0.7000000000000001}",70.0,70.0,0.0,1,Hg1.75 Pb0.25 Ba2 Y0.7 Ca0.3 Cu2 O8
4389,[4986],Hg2Ba2Y0.7Ca0.3Cu2O8-z,Hg2Ba2Y0.7Ca0.3Cu2O8,"{'Ba': 2.0, 'Ca': 0.30000000000000004, 'Cu': 2.0, 'Hg': 2.0, 'O': 8.0, 'Y': 0.7000000000000001}",58.0,58.0,0.0,1,Hg2 Ba2 Y0.7 Ca0.3 Cu2 O8
4390,[4068],Y0.7Ca0.3Ba2Cu2.7Ni0.3O7-z,Y0.7Ca0.3Ba2Cu2.7Ni0.3O7,"{'Ba': 2.0, 'Ca': 0.30000000000000004, 'Cu': 2.7, 'Ni': 0.30000000000000004, 'O': 7.0, 'Y': 0.7000000000000001}",65.0,65.0,0.0,1,Y0.7 Ca0.3 Ba2 Cu2.7 Ni0.3 O7
4391,[9052],Er0.5Pr0.2Ca0.3Ba2Cu3O7-Z,Er0.5Pr0.2Ca0.3Ba2Cu3O7,"{'Ba': 2.0, 'Ca': 0.30000000000000004, 'Cu': 3.0, 'Er': 0.5, 'O': 7.0, 'Pr': 0.2}",71.0,71.0,0.0,1,Er0.5 Pr0.2 Ca0.3 Ba2 Cu3 O7
4392,[4870],Er0.55Ca0.3Hf0.15Ba2Cu3O7.05,Er0.55Ca0.3Hf0.15Ba2Cu3O7.05,"{'Ba': 2.0, 'Ca': 0.30000000000000004, 'Cu': 3.0, 'Er': 0.55, 'Hf': 0.15, 'O': 7.05}",72.2,72.2,0.0,1,Er0.55 Ca0.3 Hf0.15 Ba2 Cu3 O7.05
4393,[3859],Er0.7Ca0.3Ba2Cu3O6.83,Er0.7Ca0.3Ba2Cu3O6.83,"{'Ba': 2.0, 'Ca': 0.30000000000000004, 'Cu': 3.0, 'Er': 0.7000000000000001, 'O': 6.83}",55.7,55.7,0.0,1,Er0.7 Ca0.3 Ba2 Cu3 O6.83
4394,[10013],Eu0.7Ca0.3Ba2Cu3O6.13,Eu0.7Ca0.3Ba2Cu3O6.13,"{'Ba': 2.0, 'Ca': 0.30000000000000004, 'Cu': 3.0, 'Eu': 0.7000000000000001, 'O': 6.13}",26.0,26.0,0.0,1,Eu0.7 Ca0.3 Ba2 Cu3 O6.13
4395,[6827],Gd0.55Ca0.3Mo0.15Ba2Cu3O6.626,Gd0.55Ca0.3Mo0.15Ba2Cu3O6.626,"{'Ba': 2.0, 'Ca': 0.30000000000000004, 'Cu': 3.0, 'Gd': 0.55, 'Mo': 0.15, 'O': 6.626}",80.7,80.7,0.0,1,Gd0.55 Ca0.3 Mo0.15 Ba2 Cu3 O6.626
4396,[5698],Lu0.7Ca0.3Ba2Cu3O6.15,Lu0.7Ca0.3Ba2Cu3O6.15,"{'Ba': 2.0, 'Ca': 0.30000000000000004, 'Cu': 3.0, 'Lu': 0.7000000000000001, 'O': 6.15}",58.0,58.0,0.0,1,Lu0.7 Ca0.3 Ba2 Cu3 O6.15
4397,[5701],Lu0.7Ca0.3Ba2Cu3O6.4,Lu0.7Ca0.3Ba2Cu3O6.4,"{'Ba': 2.0, 'Ca': 0.30000000000000004, 'Cu': 3.0, 'Lu': 0.7000000000000001, 'O': 6.4}",68.0,68.0,0.0,1,Lu0.7 Ca0.3 Ba2 Cu3 O6.4
4398,[5705],Lu0.7Ca0.3Ba2Cu3O6.62,Lu0.7Ca0.3Ba2Cu3O6.62,"{'Ba': 2.0, 'Ca': 0.30000000000000004, 'Cu': 3.0, 'Lu': 0.7000000000000001, 'O': 6.62}",80.0,80.0,0.0,1,Lu0.7 Ca0.3 Ba2 Cu3 O6.62
4399,[5703],Lu0.7Ca0.3Ba2Cu3O6.78,Lu0.7Ca0.3Ba2Cu3O6.78,"{'Ba': 2.0, 'Ca': 0.30000000000000004, 'Cu': 3.0, 'Lu': 0.7000000000000001, 'O': 6.78}",54.0,54.0,0.0,1,Lu0.7 Ca0.3 Ba2 Cu3 O6.78
4400,[5707],Lu0.7Ca0.3Ba2Cu3O6.88,Lu0.7Ca0.3Ba2Cu3O6.88,"{'Ba': 2.0, 'Ca': 0.30000000000000004, 'Cu': 3.0, 'Lu': 0.7000000000000001, 'O': 6.88}",45.0,45.0,0.0,1,Lu0.7 Ca0.3 Ba2 Cu3 O6.88
4401,[10012],Y0.7Ca0.3Ba2Cu3O6.12,Y0.7Ca0.3Ba2Cu3O6.12,"{'Ba': 2.0, 'Ca': 0.30000000000000004, 'Cu': 3.0, 'O': 6.12, 'Y': 0.7000000000000001}",35.0,35.0,0.0,1,Y0.7 Ca0.3 Ba2 Cu3 O6.12
4402,[4912],Y0.7Ca0.3Ba2Cu3O6.78,Y0.7Ca0.3Ba2Cu3O6.78,"{'Ba': 2.0, 'Ca': 0.30000000000000004, 'Cu': 3.0, 'O': 6.78, 'Y': 0.7000000000000001}",78.0,78.0,0.0,1,Y0.7 Ca0.3 Ba2 Cu3 O6.78
4403,[8065],Y0.7Ca0.3Ba2Cu3O6.87,Y0.7Ca0.3Ba2Cu3O6.87,"{'Ba': 2.0, 'Ca': 0.30000000000000004, 'Cu': 3.0, 'O': 6.87, 'Y': 0.7000000000000001}",88.7,88.7,0.0,1,Y0.7 Ca0.3 Ba2 Cu3 O6.87
4404,[6207],Y0.5Pr0.2Ca0.3Ba2Cu3O7-Z,Y0.5Pr0.2Ca0.3Ba2Cu3O7,"{'Ba': 2.0, 'Ca': 0.30000000000000004, 'Cu': 3.0, 'O': 7.0, 'Pr': 0.2, 'Y': 0.5}",74.0,74.0,0.0,1,Y0.5 Pr0.2 Ca0.3 Ba2 Cu3 O7
4405,[2536],Y0.4Ca0.3Pr0.3Ba2Cu3O7.02,Y0.4Ca0.3Pr0.3Ba2Cu3O7.02,"{'Ba': 2.0, 'Ca': 0.30000000000000004, 'Cu': 3.0, 'O': 7.02, 'Pr': 0.30000000000000004, 'Y': 0.4}",53.6,53.6,0.0,1,Y0.4 Ca0.3 Pr0.3 Ba2 Cu3 O7.02
4406,[1124],Ho0.7Ca0.3Ba2Cu4O8,Ho0.7Ca0.3Ba2Cu4O8,"{'Ba': 2.0, 'Ca': 0.30000000000000004, 'Cu': 4.0, 'Ho': 0.7000000000000001, 'O': 8.0}",87.0,87.0,0.0,1,Ho0.7 Ca0.3 Ba2 Cu4 O8