,sc_id,supercon_formula,cleaned_formula,material_dict,highest_Tc,average_Tc,std_Tc,entry_count,composition
1607,[25362],Ca0.74La26Fe0.975Co0.025As2,Ca0.74La26Fe0.975Co0.025As2,"{'As': 2.0, 'Ca': 0.74, 'Co': 0.025, 'Fe': 0.975, 'La': 26.0}",11.2,11.2,0.0,1,Ca0.74 La26 Fe0.975 Co0.025 As2
1608,[25365],Ca0.74La26Fe0.967Co0.033As2,Ca0.74La26Fe0.967Co0.033As2,"{'As': 2.0, 'Ca': 0.74, 'Co': 0.033, 'Fe': 0.967, 'La': 26.0}",15.6,15.6,0.0,1,Ca0.74 La26 Fe0.967 Co0.033 As2
1609,[25363],Ca0.74La26Fe0.954Co0.046As2,Ca0.74La26Fe0.954Co0.046As2,"{'As': 2.0, 'Ca': 0.74, 'Co': 0.046, 'Fe': 0.9540000000000001, 'La': 26.0}",21.5,21.5,0.0,1,Ca0.74 La26 Fe0.954 Co0.046 As2
1610,[25364],Ca0.74La26Fe0.935Co0.065As2,Ca0.74La26Fe0.935Co0.065As2,"{'As': 2.0, 'Ca': 0.74, 'Co': 0.065, 'Fe': 0.935, 'La': 26.0}",16.2,16.2,0.0,1,Ca0.74 La26 Fe0.935 Co0.065 As2
1611,[25431],Ca0.74La0.26Fe1As2,Ca0.74La0.26Fe1As2,"{'As': 2.0, 'Ca': 0.74, 'Fe': 1.0, 'La': 0.26}",26.1,26.1,0.0,1,Ca0.74 La0.26 Fe1 As2
1612,[23887],Ca0.75La0.25Fe1As2,Ca0.75La0.25Fe1As2,"{'As': 2.0, 'Ca': 0.75, 'Fe': 1.0, 'La': 0.25}",0.0,0.0,0.0,1,Ca0.75 La0.25 Fe1 As2
1613,[25156],Ca0.76Ce0.24Fe1As2,Ca0.76Ce0.24Fe1As2,"{'As': 2.0, 'Ca': 0.76, 'Ce': 0.24, 'Fe': 1.0}",22.0,22.0,0.0,1,Ca0.76 Ce0.24 Fe1 As2
1614,[22855],Ca0.78Ce0.22Fe2As2,Ca0.78Ce0.22Fe2As2,"{'As': 2.0, 'Ca': 0.78, 'Ce': 0.22, 'Fe': 2.0}",36.2,36.2,0.0,1,Ca0.78 Ce0.22 Fe2 As2
1615,"[23886, 24182]",Ca0.78La0.22Fe1As2,Ca0.78La0.22Fe1As2,"{'As': 2.0, 'Ca': 0.78, 'Fe': 1.0, 'La': 0.22}",22.0,21.9,0.1,2,Ca0.78 La0.22 Fe1 As2
1616,"[23730, 23885, 25430]",Ca0.79La0.21Fe1As2,Ca0.79La0.21Fe1As2,"{'As': 2.0, 'Ca': 0.79, 'Fe': 1.0, 'La': 0.21}",36.35,29.7833333333,4.8021407263,3,Ca0.79 La0.21 Fe1 As2
1617,[25157],Ca0.8Ce0.2Fe0.975Co0.025As2,Ca0.8Ce0.2Fe0.975Co0.025As2,"{'As': 2.0, 'Ca': 0.8, 'Ce': 0.2, 'Co': 0.025, 'Fe': 0.975}",34.5,34.5,0.0,1,Ca0.8 Ce0.2 Fe0.975 Co0.025 As2
1618,"[25453, 25454, 25455, 25456]",Ca0.8La0.2Fe0.98Co0.02As2,Ca0.8La0.2Fe0.98Co0.02As2,"{'As': 2.0, 'Ca': 0.8, 'Co': 0.02, 'Fe': 0.98, 'La': 0.2}",37.5,21.605,10.5894629231,4,Ca0.8 La0.2 Fe0.98 Co0.02 As2
1619,[24428],Ca0.8La0.2Fe0.978Co0.022As2,Ca0.8La0.2Fe0.978Co0.022As2,"{'As': 2.0, 'Ca': 0.8, 'Co': 0.022, 'Fe': 0.978, 'La': 0.2}",37.8,37.8,0.0,1,Ca0.8 La0.2 Fe0.978 Co0.022 As2
1620,[24429],Ca0.8La0.2Fe0.9671Co0.0329As2,Ca0.8La0.2Fe0.9671Co0.0329As2,"{'As': 2.0, 'Ca': 0.8, 'Co': 0.0329, 'Fe': 0.9671000000000001, 'La': 0.2}",36.5,36.5,0.0,1,Ca0.8 La0.2 Fe0.9671 Co0.0329 As2
1621,[24430],Ca0.8La0.2Fe0.9558Co0.0442As2,Ca0.8La0.2Fe0.9558Co0.0442As2,"{'As': 2.0, 'Ca': 0.8, 'Co': 0.0442, 'Fe': 0.9558000000000001, 'La': 0.2}",35.1,35.1,0.0,1,Ca0.8 La0.2 Fe0.9558 Co0.0442 As2
1622,[23891],Ca0.8Pr0.2Fe1As2,Ca0.8Pr0.2Fe1As2,"{'As': 2.0, 'Ca': 0.8, 'Fe': 1.0, 'Pr': 0.2}",10.0,10.0,0.0,1,Ca0.8 Pr0.2 Fe1 As2
1623,[22544],Ca0.8La0.2Fe2As2,Ca0.8La0.2Fe2As2,"{'As': 2.0, 'Ca': 0.8, 'Fe': 2.0, 'La': 0.2}",40.0,40.0,0.0,1,Ca0.8 La0.2 Fe2 As2
1624,"[22583, 23109]",Ca0.8Na0.2Fe2As2,Ca0.8Na0.2Fe2As2,"{'As': 2.0, 'Ca': 0.8, 'Fe': 2.0, 'Na': 0.2}",14.0,14.0,0.0,2,Ca0.8 Na0.2 Fe2 As2
1625,[23888],Ca0.81Ce0.19Fe1As2,Ca0.81Ce0.19Fe1As2,"{'As': 2.0, 'Ca': 0.81, 'Ce': 0.19, 'Fe': 1.0}",0.0,0.0,0.0,1,Ca0.81 Ce0.19 Fe1 As2
1626,"[23884, 24181, 24579]",Ca0.81La0.19Fe1As2,Ca0.81La0.19Fe1As2,"{'As': 2.0, 'Ca': 0.81, 'Fe': 1.0, 'La': 0.19}",34.0,30.0333333333,2.8051539867,3,Ca0.81 La0.19 Fe1 As2
1627,[23894],Ca0.81Nd0.19Fe1As2,Ca0.81Nd0.19Fe1As2,"{'As': 2.0, 'Ca': 0.81, 'Fe': 1.0, 'Nd': 0.19}",11.0,11.0,0.0,1,Ca0.81 Nd0.19 Fe1 As2
1628,[25155],Ca0.82Ce0.18Fe1As2,Ca0.82Ce0.18Fe1As2,"{'As': 2.0, 'Ca': 0.8200000000000001, 'Ce': 0.18, 'Fe': 1.0}",13.1,13.1,0.0,1,Ca0.82 Ce0.18 Fe1 As2
1629,[25429],Ca0.82La0.18Fe1As2,Ca0.82La0.18Fe1As2,"{'As': 2.0, 'Ca': 0.8200000000000001, 'Fe': 1.0, 'La': 0.18}",30.95,30.95,0.0,1,Ca0.82 La0.18 Fe1 As2
1630,[22852],Ca0.835La0.165Fe2As2,Ca0.835La0.165Fe2As2,"{'As': 2.0, 'Ca': 0.835, 'Fe': 2.0, 'La': 0.165}",41.2,41.2,0.0,1,Ca0.835 La0.165 Fe2 As2
1631,[23883],Ca0.84La0.16Fe1As2,Ca0.84La0.16Fe1As2,"{'As': 2.0, 'Ca': 0.84, 'Fe': 1.0, 'La': 0.16}",34.0,34.0,0.0,1,Ca0.84 La0.16 Fe1 As2
1632,[24125],Ca0.85Eu0.15Fe1As2,Ca0.85Eu0.15Fe1As2,"{'As': 2.0, 'Ca': 0.85, 'Eu': 0.15, 'Fe': 1.0}",12.2,12.2,0.0,1,Ca0.85 Eu0.15 Fe1 As2
1633,[24126],Ca0.85Gd0.15Fe1As2,Ca0.85Gd0.15Fe1As2,"{'As': 2.0, 'Ca': 0.85, 'Fe': 1.0, 'Gd': 0.15}",19.5,19.5,0.0,1,Ca0.85 Gd0.15 Fe1 As2
1634,"[23882, 24121, 24180, 24578]",Ca0.85La0.15Fe1As2,Ca0.85La0.15Fe1As2,"{'As': 2.0, 'Ca': 0.85, 'Fe': 1.0, 'La': 0.15}",35.1,30.325,8.1551747376,4,Ca0.85 La0.15 Fe1 As2
1635,[24123],Ca0.85Nd0.15Fe1As2,Ca0.85Nd0.15Fe1As2,"{'As': 2.0, 'Ca': 0.85, 'Fe': 1.0, 'Nd': 0.15}",14.0,14.0,0.0,1,Ca0.85 Nd0.15 Fe1 As2
1636,[24122],Ca0.85Pr0.15Fe1As2,Ca0.85Pr0.15Fe1As2,"{'As': 2.0, 'Ca': 0.85, 'Fe': 1.0, 'Pr': 0.15}",21.0,21.0,0.0,1,Ca0.85 Pr0.15 Fe1 As2
1637,[24124],Ca0.85Sm0.15Fe1As2,Ca0.85Sm0.15Fe1As2,"{'As': 2.0, 'Ca': 0.85, 'Fe': 1.0, 'Sm': 0.15}",17.6,17.6,0.0,1,Ca0.85 Sm0.15 Fe1 As2
1638,[24599],Ca0.857La0.143Fe2As2,Ca0.857La0.143Fe2As2,"{'As': 2.0, 'Ca': 0.857, 'Fe': 2.0, 'La': 0.14300000000000002}",44.0,44.0,0.0,1,Ca0.857 La0.143 Fe2 As2
1639,[22857],Ca0.858Pr0.142Fe2As2,Ca0.858Pr0.142Fe2As2,"{'As': 2.0, 'Ca': 0.858, 'Fe': 2.0, 'Pr': 0.14200000000000002}",45.3,45.3,0.0,1,Ca0.858 Pr0.142 Fe2 As2
1640,[23457],Ca0.86Pr0.14Fe2As2,Ca0.86Pr0.14Fe2As2,"{'As': 2.0, 'Ca': 0.86, 'Fe': 2.0, 'Pr': 0.14}",32.5,32.5,0.0,1,Ca0.86 Pr0.14 Fe2 As2
1641,[24597],Ca0.875Pr0.125Fe2As2,Ca0.875Pr0.125Fe2As2,"{'As': 2.0, 'Ca': 0.875, 'Fe': 2.0, 'Pr': 0.125}",49.0,49.0,0.0,1,Ca0.875 Pr0.125 Fe2 As2
1642,[22854],Ca0.88Ce0.12Fe2As2,Ca0.88Ce0.12Fe2As2,"{'As': 2.0, 'Ca': 0.88, 'Ce': 0.12, 'Fe': 2.0}",33.2,33.2,0.0,1,Ca0.88 Ce0.12 Fe2 As2
1643,[24598],Ca0.891La0.109Fe2As2,Ca0.891La0.109Fe2As2,"{'As': 2.0, 'Ca': 0.891, 'Fe': 2.0, 'La': 0.109}",45.4,45.4,0.0,1,Ca0.891 La0.109 Fe2 As2
1644,[23729],Ca0.9La0.1Fe1As2,Ca0.9La0.1Fe1As2,"{'As': 2.0, 'Ca': 0.9, 'Fe': 1.0, 'La': 0.1}",34.0,34.0,0.0,1,Ca0.9 La0.1 Fe1 As2
1645,[23874],Ca0.9Pr0.1Fe1As2,Ca0.9Pr0.1Fe1As2,"{'As': 2.0, 'Ca': 0.9, 'Fe': 1.0, 'Pr': 0.1}",20.0,20.0,0.0,1,Ca0.9 Pr0.1 Fe1 As2
1646,[22856],Ca0.902Pr0.098Fe2As2,Ca0.902Pr0.098Fe2As2,"{'As': 2.0, 'Ca': 0.902, 'Fe': 2.0, 'Pr': 0.098}",40.0,40.0,0.0,1,Ca0.902 Pr0.098 Fe2 As2
1647,[22859],Ca0.906Nd0.094Fe2As2,Ca0.906Nd0.094Fe2As2,"{'As': 2.0, 'Ca': 0.906, 'Fe': 2.0, 'Nd': 0.094}",19.3,19.3,0.0,1,Ca0.906 Nd0.094 Fe2 As2
1648,[22858],Ca0.923Nd0.077Fe2As2,Ca0.923Nd0.077Fe2As2,"{'As': 2.0, 'Ca': 0.923, 'Fe': 2.0, 'Nd': 0.077}",41.8,41.8,0.0,1,Ca0.923 Nd0.077 Fe2 As2
1649,[24596],Ca0.941Pr0.059Fe2As2,Ca0.941Pr0.059Fe2As2,"{'As': 2.0, 'Ca': 0.9410000000000001, 'Fe': 2.0, 'Pr': 0.059000000000000004}",28.9,28.9,0.0,1,Ca0.941 Pr0.059 Fe2 As2
1650,"[22229, 25239]",Ca1Fe1.94Co0.06As2,Ca1Fe1.94Co0.06As2,"{'As': 2.0, 'Ca': 1.0, 'Co': 0.06, 'Fe': 1.94}",15.5,15.3,0.2,2,Ca1 Fe1.94 Co0.06 As2
1651,[20864],Ca1Fe2.94Co0.06As2,Ca1Fe2.94Co0.06As2,"{'As': 2.0, 'Ca': 1.0, 'Co': 0.06, 'Fe': 2.94}",17.0,17.0,0.0,1,Ca1 Fe2.94 Co0.06 As2
1652,[25240],Ca1Fe1.93Co0.07As2,Ca1Fe1.93Co0.07As2,"{'As': 2.0, 'Ca': 1.0, 'Co': 0.07, 'Fe': 1.9300000000000002}",17.4,17.4,0.0,1,Ca1 Fe1.93 Co0.07 As2
1653,[25241],Ca1Fe1.926Co0.074As2,Ca1Fe1.926Co0.074As2,"{'As': 2.0, 'Ca': 1.0, 'Co': 0.074, 'Fe': 1.9260000000000002}",16.9,16.9,0.0,1,Ca1 Fe1.926 Co0.074 As2
1654,[22217],Ca1Fe1.922Co0.078As2,Ca1Fe1.922Co0.078As2,"{'As': 2.0, 'Ca': 1.0, 'Co': 0.078, 'Fe': 1.9220000000000002}",21.2,21.2,0.0,1,Ca1 Fe1.922 Co0.078 As2
1655,[21433],Ca1Fe1.92Co0.08As2,Ca1Fe1.92Co0.08As2,"{'As': 2.0, 'Ca': 1.0, 'Co': 0.08, 'Fe': 1.92}",20.4,20.4,0.0,1,Ca1 Fe1.92 Co0.08 As2
1656,[25242],Ca1Fe1.902Co0.098As2,Ca1Fe1.902Co0.098As2,"{'As': 2.0, 'Ca': 1.0, 'Co': 0.098, 'Fe': 1.9020000000000001}",15.8,15.8,0.0,1,Ca1 Fe1.902 Co0.098 As2
1657,[22230],Ca1Fe1.9Co0.1As2,Ca1Fe1.9Co0.1As2,"{'As': 2.0, 'Ca': 1.0, 'Co': 0.1, 'Fe': 1.9}",17.7,17.7,0.0,1,Ca1 Fe1.9 Co0.1 As2
1658,"[21791, 22218]",Ca1Fe1.898Co0.102As2,Ca1Fe1.898Co0.102As2,"{'As': 2.0, 'Ca': 1.0, 'Co': 0.10200000000000001, 'Fe': 1.8980000000000001}",19.9,19.2,0.7000000000000001,2,Ca1 Fe1.898 Co0.102 As2
1659,"[21792, 22219]",Ca1Fe1.888Co0.112As2,Ca1Fe1.888Co0.112As2,"{'As': 2.0, 'Ca': 1.0, 'Co': 0.112, 'Fe': 1.888}",19.0,17.75,1.25,2,Ca1 Fe1.888 Co0.112 As2
1660,[22220],Ca1Fe1.874Co0.126As2,Ca1Fe1.874Co0.126As2,"{'As': 2.0, 'Ca': 1.0, 'Co': 0.126, 'Fe': 1.874}",14.8,14.8,0.0,1,Ca1 Fe1.874 Co0.126 As2
1661,[21793],Ca1Fe1.87Co0.13As2,Ca1Fe1.87Co0.13As2,"{'As': 2.0, 'Ca': 1.0, 'Co': 0.13, 'Fe': 1.87}",17.2,17.2,0.0,1,Ca1 Fe1.87 Co0.13 As2
1662,[21794],Ca1Fe1.854Co0.146As2,Ca1Fe1.854Co0.146As2,"{'As': 2.0, 'Ca': 1.0, 'Co': 0.146, 'Fe': 1.854}",16.8,16.8,0.0,1,Ca1 Fe1.854 Co0.146 As2
1663,[22231],Ca1Fe1.85Co0.15As2,Ca1Fe1.85Co0.15As2,"{'As': 2.0, 'Ca': 1.0, 'Co': 0.15, 'Fe': 1.85}",15.2,15.2,0.0,1,Ca1 Fe1.85 Co0.15 As2
1664,[22232],Ca1Fe1.82Co0.18As2,Ca1Fe1.82Co0.18As2,"{'As': 2.0, 'Ca': 1.0, 'Co': 0.18, 'Fe': 1.82}",15.7,15.7,0.0,1,Ca1 Fe1.82 Co0.18 As2
1665,[22233],Ca1Fe1.8Co0.2As2,Ca1Fe1.8Co0.2As2,"{'As': 2.0, 'Ca': 1.0, 'Co': 0.2, 'Fe': 1.8}",17.1,17.1,0.0,1,Ca1 Fe1.8 Co0.2 As2
1666,[22234],Ca1Fe1.75Co0.25As2,Ca1Fe1.75Co0.25As2,"{'As': 2.0, 'Ca': 1.0, 'Co': 0.25, 'Fe': 1.75}",14.1,14.1,0.0,1,Ca1 Fe1.75 Co0.25 As2
1667,[22235],Ca1Fe1.73Co0.27As2,Ca1Fe1.73Co0.27As2,"{'As': 2.0, 'Ca': 1.0, 'Co': 0.27, 'Fe': 1.73}",12.0,12.0,0.0,1,Ca1 Fe1.73 Co0.27 As2
1668,[22236],Ca1Fe1.7Co0.3As2,Ca1Fe1.7Co0.3As2,"{'As': 2.0, 'Ca': 1.0, 'Co': 0.30000000000000004, 'Fe': 1.7000000000000002}",10.8,10.8,0.0,1,Ca1 Fe1.7 Co0.3 As2
1669,[22237],Ca1Fe1.6Co0.4As2,Ca1Fe1.6Co0.4As2,"{'As': 2.0, 'Ca': 1.0, 'Co': 0.4, 'Fe': 1.6}",2.0,2.0,0.0,1,Ca1 Fe1.6 Co0.4 As2
1670,[21338],Ca1Fe1.94Ni0.06As2,Ca1Fe1.94Ni0.06As2,"{'As': 2.0, 'Ca': 1.0, 'Fe': 1.94, 'Ni': 0.06}",15.0,15.0,0.0,1,Ca1 Fe1.94 Ni0.06 As2
1671,[25309],Ca1Fe1.94Rh0.06As2,Ca1Fe1.94Rh0.06As2,"{'As': 2.0, 'Ca': 1.0, 'Fe': 1.94, 'Rh': 0.06}",0.0,0.0,0.0,1,Ca1 Fe1.94 Rh0.06 As2
1672,[25308],Ca1Fe1.952Rh0.048As2,Ca1Fe1.952Rh0.048As2,"{'As': 2.0, 'Ca': 1.0, 'Fe': 1.952, 'Rh': 0.048}",12.8,12.8,0.0,1,Ca1 Fe1.952 Rh0.048 As2
1673,[25311],Ca1Fe1.956Rh0.044As2,Ca1Fe1.956Rh0.044As2,"{'As': 2.0, 'Ca': 1.0, 'Fe': 1.956, 'Rh': 0.044}",11.4,11.4,0.0,1,Ca1 Fe1.956 Rh0.044 As2
1674,[25307],Ca1Fe1.958Rh0.042As2,Ca1Fe1.958Rh0.042As2,"{'As': 2.0, 'Ca': 1.0, 'Fe': 1.9580000000000002, 'Rh': 0.042}",11.9,11.9,0.0,1,Ca1 Fe1.958 Rh0.042 As2
1675,[25310],Ca1Fe1.96Rh0.04As2,Ca1Fe1.96Rh0.04As2,"{'As': 2.0, 'Ca': 1.0, 'Fe': 1.96, 'Rh': 0.04}",10.8,10.8,0.0,1,Ca1 Fe1.96 Rh0.04 As2
1676,"[20629, 21207, 21343]",Ca1Fe2As2,Ca1Fe2As2,"{'As': 2.0, 'Ca': 1.0, 'Fe': 2.0}",12.0,11.8666666667,0.1885618083,3,Ca1 Fe2 As2
1677,"[23459, 25768]",Ca1Pd2As2,Ca1Pd2As2,"{'As': 2.0, 'Ca': 1.0, 'Pd': 2.0}",1.27,1.27,0.0,2,Ca1 Pd2 As2
1678,"[22184, 22806]",Fe2As2Ca4Mg0.75Ti2.25O7.5,Fe2As2Ca4Mg0.75Ti2.25O7.5,"{'As': 2.0, 'Ca': 4.0, 'Fe': 2.0, 'Mg': 0.75, 'O': 7.5, 'Ti': 2.25}",43.0,42.5,0.5,2,Fe2 As2 Ca4 Mg0.75 Ti2.25 O7.5
1679,[22046],Fe2As2Ca4Sc2.01Ti0.99O7.5,Fe2As2Ca4Sc2.01Ti0.99O7.5,"{'As': 2.0, 'Ca': 4.0, 'Fe': 2.0, 'O': 7.5, 'Sc': 2.01, 'Ti': 0.99}",31.0,31.0,0.0,1,Fe2 As2 Ca4 Sc2.01 Ti0.99 O7.5
1680,[22048],Fe2As2Ca4Sc2Ti3O13,Fe2As2Ca4Sc2Ti3O13,"{'As': 2.0, 'Ca': 4.0, 'Fe': 2.0, 'O': 13.0, 'Sc': 2.0, 'Ti': 3.0}",36.0,36.0,0.0,1,Fe2 As2 Ca4 Sc2 Ti3 O13
1681,[22183],Fe2As2Ca5Mg0.8Ti3.2O9.8,Fe2As2Ca5Mg0.8Ti3.2O9.8,"{'As': 2.0, 'Ca': 5.0, 'Fe': 2.0, 'Mg': 0.8, 'O': 9.8, 'Ti': 3.2}",39.0,39.0,0.0,1,Fe2 As2 Ca5 Mg0.8 Ti3.2 O9.8
1682,[22809],Fe2As2Ca5Mg1Ti3O9.5,Fe2As2Ca5Mg1Ti3O9.5,"{'As': 2.0, 'Ca': 5.0, 'Fe': 2.0, 'Mg': 1.0, 'O': 9.5, 'Ti': 3.0}",36.0,36.0,0.0,1,Fe2 As2 Ca5 Mg1 Ti3 O9.5
1683,[22047],Fe2As2Ca5Sc2Ti2O10,Fe2As2Ca5Sc2Ti2O10,"{'As': 2.0, 'Ca': 5.0, 'Fe': 2.0, 'O': 10.0, 'Sc': 2.0, 'Ti': 2.0}",36.0,36.0,0.0,1,Fe2 As2 Ca5 Sc2 Ti2 O10
1684,[22807],Fe2As2Ca5Sc2Ti2O10.5,Fe2As2Ca5Sc2Ti2O10.5,"{'As': 2.0, 'Ca': 5.0, 'Fe': 2.0, 'O': 10.5, 'Sc': 2.0, 'Ti': 2.0}",33.0,33.0,0.0,1,Fe2 As2 Ca5 Sc2 Ti2 O10.5
1685,[22626],Ca8Mg1.5Ti4.5Fe2As2O9.5,Ca8Mg1.5Ti4.5Fe2As2O9.5,"{'As': 2.0, 'Ca': 8.0, 'Fe': 2.0, 'Mg': 1.5, 'O': 9.5, 'Ti': 4.5}",40.0,40.0,0.0,1,Ca8 Mg1.5 Ti4.5 Fe2 As2 O9.5
1686,[12904],As2Cd1Ge1,As2Cd1Ge1,"{'As': 2.0, 'Cd': 1.0, 'Ge': 1.0}",3.02,3.02,0.0,1,As2 Cd1 Ge1
1687,[12903],As2Cd1Sn1,As2Cd1Sn1,"{'As': 2.0, 'Cd': 1.0, 'Sn': 1.0}",2.29,2.29,0.0,1,As2 Cd1 Sn1
1688,"[25974, 25975, 25976, 25977, 26181]",As2Cd3,As2Cd3,"{'As': 2.0, 'Cd': 3.0}",3.55,1.2414,1.371899938,5,As2 Cd3
1689,[24353],K1Fe1.932Co0.068As2,K1Fe1.932Co0.068As2,"{'As': 2.0, 'Co': 0.068, 'Fe': 1.932, 'K': 1.0}",1.845,1.845,0.0,1,K1 Fe1.932 Co0.068 As2
1690,[22238],Sr1Fe1.916Co0.084As2,Sr1Fe1.916Co0.084As2,"{'As': 2.0, 'Co': 0.084, 'Fe': 1.916, 'Sr': 1.0}",2.0,2.0,0.0,1,Sr1 Fe1.916 Co0.084 As2
1691,[22192],Fe1.9Co0.1As2Sr4Mg1Ti1O6,Fe1.9Co0.1As2Sr4Mg1Ti1O6,"{'As': 2.0, 'Co': 0.1, 'Fe': 1.9, 'Mg': 1.0, 'O': 6.0, 'Sr': 4.0, 'Ti': 1.0}",22.0,22.0,0.0,1,Fe1.9 Co0.1 As2 Sr4 Mg1 Ti1 O6
1692,[22239],Sr1Fe1.888Co0.112As2,Sr1Fe1.888Co0.112As2,"{'As': 2.0, 'Co': 0.112, 'Fe': 1.888, 'Sr': 1.0}",2.0,2.0,0.0,1,Sr1 Fe1.888 Co0.112 As2
1693,[22240],Sr1Fe1.86Co0.14As2,Sr1Fe1.86Co0.14As2,"{'As': 2.0, 'Co': 0.14, 'Fe': 1.8599999999999999, 'Sr': 1.0}",7.2,7.2,0.0,1,Sr1 Fe1.86 Co0.14 As2
1694,[22241],Sr1Fe1.826Co0.174As2,Sr1Fe1.826Co0.174As2,"{'As': 2.0, 'Co': 0.17400000000000002, 'Fe': 1.826, 'Sr': 1.0}",9.5,9.5,0.0,1,Sr1 Fe1.826 Co0.174 As2
1695,[22242],Sr1Fe1.816Co0.184As2,Sr1Fe1.816Co0.184As2,"{'As': 2.0, 'Co': 0.184, 'Fe': 1.816, 'Sr': 1.0}",13.4,13.4,0.0,1,Sr1 Fe1.816 Co0.184 As2
1696,[22821],Sr1Fe1.68Zn0.12Co0.2As2,Sr1Fe1.68Zn0.12Co0.2As2,"{'As': 2.0, 'Co': 0.2, 'Fe': 1.6800000000000002, 'Sr': 1.0, 'Zn': 0.12}",6.22,6.22,0.0,1,Sr1 Fe1.68 Zn0.12 Co0.2 As2
1697,[22820],Sr1Fe1.72Zn0.08Co0.2As2,Sr1Fe1.72Zn0.08Co0.2As2,"{'As': 2.0, 'Co': 0.2, 'Fe': 1.72, 'Sr': 1.0, 'Zn': 0.08}",9.41,9.41,0.0,1,Sr1 Fe1.72 Zn0.08 Co0.2 As2
1698,[22819],Sr1Fe1.76Zn0.04Co0.2As2,Sr1Fe1.76Zn0.04Co0.2As2,"{'As': 2.0, 'Co': 0.2, 'Fe': 1.76, 'Sr': 1.0, 'Zn': 0.04}",12.1,12.1,0.0,1,Sr1 Fe1.76 Zn0.04 Co0.2 As2
1699,[22193],Fe1.8Co0.2As2Sr4Mg1Ti1O6,Fe1.8Co0.2As2Sr4Mg1Ti1O6,"{'As': 2.0, 'Co': 0.2, 'Fe': 1.8, 'Mg': 1.0, 'O': 6.0, 'Sr': 4.0, 'Ti': 1.0}",24.0,24.0,0.0,1,Fe1.8 Co0.2 As2 Sr4 Mg1 Ti1 O6
1700,"[20586, 20833, 22818]",Sr1Fe1.8Co0.2As2,Sr1Fe1.8Co0.2As2,"{'As': 2.0, 'Co': 0.2, 'Fe': 1.8, 'Sr': 1.0}",19.2,18.6433333333,0.7872455497,3,Sr1 Fe1.8 Co0.2 As2
1701,[22243],Sr1Fe1.792Co0.208As2,Sr1Fe1.792Co0.208As2,"{'As': 2.0, 'Co': 0.20800000000000002, 'Fe': 1.792, 'Sr': 1.0}",13.9,13.9,0.0,1,Sr1 Fe1.792 Co0.208 As2
1702,[22738],Sr0.8Eu0.2Fe1.78Co0.22As2,Sr0.8Eu0.2Fe1.78Co0.22As2,"{'As': 2.0, 'Co': 0.22, 'Eu': 0.2, 'Fe': 1.78, 'Sr': 0.8}",18.0,18.0,0.0,1,Sr0.8 Eu0.2 Fe1.78 Co0.22 As2
1703,[22739],Sr0.54Eu0.46Fe1.78Co0.22As2,Sr0.54Eu0.46Fe1.78Co0.22As2,"{'As': 2.0, 'Co': 0.22, 'Eu': 0.46, 'Fe': 1.78, 'Sr': 0.54}",16.2,16.2,0.0,1,Sr0.54 Eu0.46 Fe1.78 Co0.22 As2
1704,[21579],Eu1Fe1.78Co0.22As2,Eu1Fe1.78Co0.22As2,"{'As': 2.0, 'Co': 0.22, 'Eu': 1.0, 'Fe': 1.78}",21.0,21.0,0.0,1,Eu1 Fe1.78 Co0.22 As2
1705,[22244],Sr1Fe1.766Co0.234As2,Sr1Fe1.766Co0.234As2,"{'As': 2.0, 'Co': 0.234, 'Fe': 1.766, 'Sr': 1.0}",14.4,14.4,0.0,1,Sr1 Fe1.766 Co0.234 As2
1706,[22249],Sr0.958Eu0.042Fe1.76Co0.24As2,Sr0.958Eu0.042Fe1.76Co0.24As2,"{'As': 2.0, 'Co': 0.24, 'Eu': 0.042, 'Fe': 1.76, 'Sr': 0.9580000000000001}",13.3,13.3,0.0,1,Sr0.958 Eu0.042 Fe1.76 Co0.24 As2
1707,[22250],Sr0.85Eu0.15Fe1.76Co0.24As2,Sr0.85Eu0.15Fe1.76Co0.24As2,"{'As': 2.0, 'Co': 0.24, 'Eu': 0.15, 'Fe': 1.76, 'Sr': 0.85}",12.5,12.5,0.0,1,Sr0.85 Eu0.15 Fe1.76 Co0.24 As2
1708,[22251],Sr0.81Eu0.19Fe1.76Co0.24As2,Sr0.81Eu0.19Fe1.76Co0.24As2,"{'As': 2.0, 'Co': 0.24, 'Eu': 0.19, 'Fe': 1.76, 'Sr': 0.81}",12.0,12.0,0.0,1,Sr0.81 Eu0.19 Fe1.76 Co0.24 As2
1709,[22252],Sr0.66Eu0.34Fe1.76Co0.24As2,Sr0.66Eu0.34Fe1.76Co0.24As2,"{'As': 2.0, 'Co': 0.24, 'Eu': 0.34, 'Fe': 1.76, 'Sr': 0.66}",9.82,9.82,0.0,1,Sr0.66 Eu0.34 Fe1.76 Co0.24 As2
1710,[22253],Sr0.57Eu0.43Fe1.76Co0.24As2,Sr0.57Eu0.43Fe1.76Co0.24As2,"{'As': 2.0, 'Co': 0.24, 'Eu': 0.43, 'Fe': 1.76, 'Sr': 0.5700000000000001}",8.78,8.78,0.0,1,Sr0.57 Eu0.43 Fe1.76 Co0.24 As2
1711,[22254],Sr0.5Eu0.5Fe1.76Co0.24As2,Sr0.5Eu0.5Fe1.76Co0.24As2,"{'As': 2.0, 'Co': 0.24, 'Eu': 0.5, 'Fe': 1.76, 'Sr': 0.5}",8.45,8.45,0.0,1,Sr0.5 Eu0.5 Fe1.76 Co0.24 As2
1712,[22255],Sr0.4Eu0.6Fe1.76Co0.24As2,Sr0.4Eu0.6Fe1.76Co0.24As2,"{'As': 2.0, 'Co': 0.24, 'Eu': 0.6000000000000001, 'Fe': 1.76, 'Sr': 0.4}",7.97,7.97,0.0,1,Sr0.4 Eu0.6 Fe1.76 Co0.24 As2
1713,[22256],Sr0.28Eu0.72Fe1.76Co0.24As2,Sr0.28Eu0.72Fe1.76Co0.24As2,"{'As': 2.0, 'Co': 0.24, 'Eu': 0.72, 'Fe': 1.76, 'Sr': 0.28}",12.3,12.3,0.0,1,Sr0.28 Eu0.72 Fe1.76 Co0.24 As2
1714,[22257],Sr0.15Eu0.85Fe1.76Co0.24As2,Sr0.15Eu0.85Fe1.76Co0.24As2,"{'As': 2.0, 'Co': 0.24, 'Eu': 0.85, 'Fe': 1.76, 'Sr': 0.15}",2.0,2.0,0.0,1,Sr0.15 Eu0.85 Fe1.76 Co0.24 As2
1715,[22258],Sr0.05Eu0.95Fe1.76Co0.24As2,Sr0.05Eu0.95Fe1.76Co0.24As2,"{'As': 2.0, 'Co': 0.24, 'Eu': 0.9500000000000001, 'Fe': 1.76, 'Sr': 0.05}",2.0,2.0,0.0,1,Sr0.05 Eu0.95 Fe1.76 Co0.24 As2
1716,[22259],Eu1Fe1.76Co0.24As2,Eu1Fe1.76Co0.24As2,"{'As': 2.0, 'Co': 0.24, 'Eu': 1.0, 'Fe': 1.76}",2.0,2.0,0.0,1,Eu1 Fe1.76 Co0.24 As2
1717,[22248],Sr1Fe1.76Co0.24As2,Sr1Fe1.76Co0.24As2,"{'As': 2.0, 'Co': 0.24, 'Fe': 1.76, 'Sr': 1.0}",13.5,13.5,0.0,1,Sr1 Fe1.76 Co0.24 As2
1718,[22245],Sr1Fe1.752Co0.248As2,Sr1Fe1.752Co0.248As2,"{'As': 2.0, 'Co': 0.248, 'Fe': 1.752, 'Sr': 1.0}",13.2,13.2,0.0,1,Sr1 Fe1.752 Co0.248 As2
1719,"[20587, 20834, 21217]",Sr1Fe1.75Co0.25As2,Sr1Fe1.75Co0.25As2,"{'As': 2.0, 'Co': 0.25, 'Fe': 1.75, 'Sr': 1.0}",18.1,16.5,2.2627416998,3,Sr1 Fe1.75 Co0.25 As2
1720,[22246],Sr1Fe1.732Co0.268As2,Sr1Fe1.732Co0.268As2,"{'As': 2.0, 'Co': 0.268, 'Fe': 1.732, 'Sr': 1.0}",11.0,11.0,0.0,1,Sr1 Fe1.732 Co0.268 As2
1721,[22101],Eu0.6Sr0.4Fe1.715Co0.285As2,Eu0.6Sr0.4Fe1.715Co0.285As2,"{'As': 2.0, 'Co': 0.28500000000000003, 'Eu': 0.6000000000000001, 'Fe': 1.7149999999999999, 'Sr': 0.4}",13.9,13.9,0.0,1,Eu0.6 Sr0.4 Fe1.715 Co0.285 As2
1722,[22102],Eu0.7Sr0.3Fe1.715Co0.285As2,Eu0.7Sr0.3Fe1.715Co0.285As2,"{'As': 2.0, 'Co': 0.28500000000000003, 'Eu': 0.7000000000000001, 'Fe': 1.7149999999999999, 'Sr': 0.30000000000000004}",10.2,10.2,0.0,1,Eu0.7 Sr0.3 Fe1.715 Co0.285 As2
1723,[22100],Eu1Fe1.715Co0.285As2,Eu1Fe1.715Co0.285As2,"{'As': 2.0, 'Co': 0.28500000000000003, 'Eu': 1.0, 'Fe': 1.7149999999999999}",21.0,21.0,0.0,1,Eu1 Fe1.715 Co0.285 As2
1724,[22194],Fe1.7Co0.3As2Sr4Mg1Ti1O6,Fe1.7Co0.3As2Sr4Mg1Ti1O6,"{'As': 2.0, 'Co': 0.30000000000000004, 'Fe': 1.7000000000000002, 'Mg': 1.0, 'O': 6.0, 'Sr': 4.0, 'Ti': 1.0}",16.0,16.0,0.0,1,Fe1.7 Co0.3 As2 Sr4 Mg1 Ti1 O6
1725,[20835],Sr1Fe1.7Co0.3As2,Sr1Fe1.7Co0.3As2,"{'As': 2.0, 'Co': 0.30000000000000004, 'Fe': 1.7000000000000002, 'Sr': 1.0}",13.2,13.2,0.0,1,Sr1 Fe1.7 Co0.3 As2
1726,[22247],Sr1Fe1.66Co0.34As2,Sr1Fe1.66Co0.34As2,"{'As': 2.0, 'Co': 0.34, 'Fe': 1.6600000000000001, 'Sr': 1.0}",5.5600000000000005,5.5600000000000005,0.0,1,Sr1 Fe1.66 Co0.34 As2
1727,"[20588, 20836]",Sr1Fe1.6Co0.4As2,Sr1Fe1.6Co0.4As2,"{'As': 2.0, 'Co': 0.4, 'Fe': 1.6, 'Sr': 1.0}",12.9,12.9,0.0,2,Sr1 Fe1.6 Co0.4 As2
1728,[20665],Cs0.4Sr0.6Fe2As2,Cs0.4Sr0.6Fe2As2,"{'As': 2.0, 'Cs': 0.4, 'Fe': 2.0, 'Sr': 0.6000000000000001}",36.6,36.6,0.0,1,Cs0.4 Sr0.6 Fe2 As2
1729,"[20664, 23267, 24267, 24878, 25040]",Cs1Fe2As2,Cs1Fe2As2,"{'As': 2.0, 'Cs': 1.0, 'Fe': 2.0}",2.6,2.032,0.30616335510000003,5,Cs1 Fe2 As2
1730,[22850],Eu0.48K0.52Fe2As2,Eu0.48K0.52Fe2As2,"{'As': 2.0, 'Eu': 0.48, 'Fe': 2.0, 'K': 0.52}",30.0,30.0,0.0,1,Eu0.48 K0.52 Fe2 As2
1731,[22884],Eu0.5K0.5Fe1.9Ni0.1As2,Eu0.5K0.5Fe1.9Ni0.1As2,"{'As': 2.0, 'Eu': 0.5, 'Fe': 1.9, 'K': 0.5, 'Ni': 0.1}",18.0,18.0,0.0,1,Eu0.5 K0.5 Fe1.9 Ni0.1 As2
1732,[22883],Eu0.5K0.5Fe1.94Ni0.06As2,Eu0.5K0.5Fe1.94Ni0.06As2,"{'As': 2.0, 'Eu': 0.5, 'Fe': 1.94, 'K': 0.5, 'Ni': 0.06}",23.0,23.0,0.0,1,Eu0.5 K0.5 Fe1.94 Ni0.06 As2
1733,"[20680, 22882, 23095]",Eu0.5K0.5Fe2As2,Eu0.5K0.5Fe2As2,"{'As': 2.0, 'Eu': 0.5, 'Fe': 2.0, 'K': 0.5}",33.0,32.1666666667,0.6236095645,3,Eu0.5 K0.5 Fe2 As2