,sc_id,supercon_formula,cleaned_formula,material_dict,highest_Tc,average_Tc,std_Tc,entry_count,composition
3613,[8773],La1.2Ba1.5Ca0.3Cu3O7.06,La1.2Ba1.5Ca0.3Cu3O7.06,"{'Ba': 1.5, 'Ca': 0.30000000000000004, 'Cu': 3.0, 'La': 1.2, 'O': 7.06}",75.2,75.2,0.0,1,La1.2 Ba1.5 Ca0.3 Cu3 O7.06
3614,[6626],La1.65Ba1.5Ca0.35Cu3O6.79,La1.65Ba1.5Ca0.35Cu3O6.79,"{'Ba': 1.5, 'Ca': 0.35000000000000003, 'Cu': 3.0, 'La': 1.65, 'O': 6.79}",72.0,72.0,0.0,1,La1.65 Ba1.5 Ca0.35 Cu3 O6.79
3615,[9316],Y0.6Ca0.4Ba1.5La0.5Cu3O7.01,Y0.6Ca0.4Ba1.5La0.5Cu3O7.01,"{'Ba': 1.5, 'Ca': 0.4, 'Cu': 3.0, 'La': 0.5, 'O': 7.01, 'Y': 0.6000000000000001}",82.4,82.4,0.0,1,Y0.6 Ca0.4 Ba1.5 La0.5 Cu3 O7.01
3616,[8763],La1.1Ba1.5Ca0.4Cu3O6.76,La1.1Ba1.5Ca0.4Cu3O6.76,"{'Ba': 1.5, 'Ca': 0.4, 'Cu': 3.0, 'La': 1.1, 'O': 6.76}",34.0,34.0,0.0,1,La1.1 Ba1.5 Ca0.4 Cu3 O6.76
3617,[6627],La1.1Ba1.5Ca0.4Cu3O6.82,La1.1Ba1.5Ca0.4Cu3O6.82,"{'Ba': 1.5, 'Ca': 0.4, 'Cu': 3.0, 'La': 1.1, 'O': 6.82}",72.0,72.0,0.0,1,La1.1 Ba1.5 Ca0.4 Cu3 O6.82
3618,[8764],La1.1Ba1.5Ca0.4Cu3O6.97,La1.1Ba1.5Ca0.4Cu3O6.97,"{'Ba': 1.5, 'Ca': 0.4, 'Cu': 3.0, 'La': 1.1, 'O': 6.97}",70.0,70.0,0.0,1,La1.1 Ba1.5 Ca0.4 Cu3 O6.97
3619,"[8765, 8766]",La1.1Ba1.5Ca0.4Cu3O7.06,La1.1Ba1.5Ca0.4Cu3O7.06,"{'Ba': 1.5, 'Ca': 0.4, 'Cu': 3.0, 'La': 1.1, 'O': 7.06}",79.0,79.0,0.0,2,La1.1 Ba1.5 Ca0.4 Cu3 O7.06
3620,[8767],La1.1Ba1.5Ca0.4Cu3O7.11,La1.1Ba1.5Ca0.4Cu3O7.11,"{'Ba': 1.5, 'Ca': 0.4, 'Cu': 3.0, 'La': 1.1, 'O': 7.11}",77.0,77.0,0.0,1,La1.1 Ba1.5 Ca0.4 Cu3 O7.11
3621,[8768],La1.1Ba1.5Ca0.4Cu3O7.123,La1.1Ba1.5Ca0.4Cu3O7.123,"{'Ba': 1.5, 'Ca': 0.4, 'Cu': 3.0, 'La': 1.1, 'O': 7.123}",76.0,76.0,0.0,1,La1.1 Ba1.5 Ca0.4 Cu3 O7.123
3622,[8769],La1.1Ba1.5Ca0.4Cu3O7.17,La1.1Ba1.5Ca0.4Cu3O7.17,"{'Ba': 1.5, 'Ca': 0.4, 'Cu': 3.0, 'La': 1.1, 'O': 7.17}",70.0,70.0,0.0,1,La1.1 Ba1.5 Ca0.4 Cu3 O7.17
3623,[8770],La1.1Ba1.5Ca0.4Cu3O7.25,La1.1Ba1.5Ca0.4Cu3O7.25,"{'Ba': 1.5, 'Ca': 0.4, 'Cu': 3.0, 'La': 1.1, 'O': 7.25}",35.0,35.0,0.0,1,La1.1 Ba1.5 Ca0.4 Cu3 O7.25
3624,[4835],Nd1.1Ba1.5Ca0.4Cu3O6.864,Nd1.1Ba1.5Ca0.4Cu3O6.864,"{'Ba': 1.5, 'Ca': 0.4, 'Cu': 3.0, 'Nd': 1.1, 'O': 6.864}",54.0,54.0,0.0,1,Nd1.1 Ba1.5 Ca0.4 Cu3 O6.864
3625,[6628],La1.05Ba1.5Ca0.45Cu3O6.81,La1.05Ba1.5Ca0.45Cu3O6.81,"{'Ba': 1.5, 'Ca': 0.45, 'Cu': 3.0, 'La': 1.05, 'O': 6.8100000000000005}",74.0,74.0,0.0,1,La1.05 Ba1.5 Ca0.45 Cu3 O6.81
3626,[4802],Y0.5Ca0.5Ba1.5La0.5Cu3O6.94,Y0.5Ca0.5Ba1.5La0.5Cu3O6.94,"{'Ba': 1.5, 'Ca': 0.5, 'Cu': 3.0, 'La': 0.5, 'O': 6.94, 'Y': 0.5}",82.0,82.0,0.0,1,Y0.5 Ca0.5 Ba1.5 La0.5 Cu3 O6.94
3627,[9317],Y0.5Ca0.5Ba1.5La0.5Cu3O6.96,Y0.5Ca0.5Ba1.5La0.5Cu3O6.96,"{'Ba': 1.5, 'Ca': 0.5, 'Cu': 3.0, 'La': 0.5, 'O': 6.96, 'Y': 0.5}",82.5,82.5,0.0,1,Y0.5 Ca0.5 Ba1.5 La0.5 Cu3 O6.96
3628,[8758],La1Ba1.5Ca0.5Cu3O6.79,La1Ba1.5Ca0.5Cu3O6.79,"{'Ba': 1.5, 'Ca': 0.5, 'Cu': 3.0, 'La': 1.0, 'O': 6.79}",40.0,40.0,0.0,1,La1 Ba1.5 Ca0.5 Cu3 O6.79
3629,[6629],La1Ba1.5Ca0.5Cu3O6.85,La1Ba1.5Ca0.5Cu3O6.85,"{'Ba': 1.5, 'Ca': 0.5, 'Cu': 3.0, 'La': 1.0, 'O': 6.85}",76.0,76.0,0.0,1,La1 Ba1.5 Ca0.5 Cu3 O6.85
3630,[4811],La1Ba1.5Ca0.5Cu3O6.96,La1Ba1.5Ca0.5Cu3O6.96,"{'Ba': 1.5, 'Ca': 0.5, 'Cu': 3.0, 'La': 1.0, 'O': 6.96}",79.9,79.9,0.0,1,La1 Ba1.5 Ca0.5 Cu3 O6.96
3631,[8759],La1Ba1.5Ca0.5Cu3O7.011,La1Ba1.5Ca0.5Cu3O7.011,"{'Ba': 1.5, 'Ca': 0.5, 'Cu': 3.0, 'La': 1.0, 'O': 7.011}",78.0,78.0,0.0,1,La1 Ba1.5 Ca0.5 Cu3 O7.011
3632,[8760],La1Ba1.5Ca0.5Cu3O7.079,La1Ba1.5Ca0.5Cu3O7.079,"{'Ba': 1.5, 'Ca': 0.5, 'Cu': 3.0, 'La': 1.0, 'O': 7.079}",76.0,76.0,0.0,1,La1 Ba1.5 Ca0.5 Cu3 O7.079
3633,[8761],La1Ba1.5Ca0.5Cu3O7.112,La1Ba1.5Ca0.5Cu3O7.112,"{'Ba': 1.5, 'Ca': 0.5, 'Cu': 3.0, 'La': 1.0, 'O': 7.112}",72.0,72.0,0.0,1,La1 Ba1.5 Ca0.5 Cu3 O7.112
3634,[8762],La1Ba1.5Ca0.5Cu3O7.16,La1Ba1.5Ca0.5Cu3O7.16,"{'Ba': 1.5, 'Ca': 0.5, 'Cu': 3.0, 'La': 1.0, 'O': 7.16}",56.0,56.0,0.0,1,La1 Ba1.5 Ca0.5 Cu3 O7.16
3635,[4700],Y0.4Pr0.6Ba1.5Ca0.5Cu3O7-z,Y0.4Pr0.6Ba1.5Ca0.5Cu3O7,"{'Ba': 1.5, 'Ca': 0.5, 'Cu': 3.0, 'O': 7.0, 'Pr': 0.6000000000000001, 'Y': 0.4}",26.7,26.7,0.0,1,Y0.4 Pr0.6 Ba1.5 Ca0.5 Cu3 O7
3636,[17],Y1Ba1.5Ca0.5Cu3O7-Z,Y1Ba1.5Ca0.5Cu3O7,"{'Ba': 1.5, 'Ca': 0.5, 'Cu': 3.0, 'O': 7.0, 'Y': 1.0}",82.0,82.0,0.0,1,Y1 Ba1.5 Ca0.5 Cu3 O7
3637,[2988],Y2Ba1.5Ca0.5Cu3O8+Z,Y2Ba1.5Ca0.5Cu3O8,"{'Ba': 1.5, 'Ca': 0.5, 'Cu': 3.0, 'O': 8.0, 'Y': 2.0}",80.0,80.0,0.0,1,Y2 Ba1.5 Ca0.5 Cu3 O8
3638,[6630],La0.9Ba1.5Ca0.6Cu3O6.74,La0.9Ba1.5Ca0.6Cu3O6.74,"{'Ba': 1.5, 'Ca': 0.6000000000000001, 'Cu': 3.0, 'La': 0.9, 'O': 6.74}",73.0,73.0,0.0,1,La0.9 Ba1.5 Ca0.6 Cu3 O6.74
3639,[7419],La1.5Yb0.5Ba1.5Ca1Cu5O11.785,La1.5Yb0.5Ba1.5Ca1Cu5O11.785,"{'Ba': 1.5, 'Ca': 1.0, 'Cu': 5.0, 'La': 1.5, 'O': 11.785, 'Yb': 0.5}",76.0,76.0,0.0,1,La1.5 Yb0.5 Ba1.5 Ca1 Cu5 O11.785
3640,[4134],Hg0.75Sr0.5Ba1.5Ca2Cu3O8+z,Hg0.75Sr0.5Ba1.5Ca2Cu3O8,"{'Ba': 1.5, 'Ca': 2.0, 'Cu': 3.0, 'Hg': 0.75, 'O': 8.0, 'Sr': 0.5}",126.2,126.2,0.0,1,Hg0.75 Sr0.5 Ba1.5 Ca2 Cu3 O8
3641,"[5515, 5520]",Hg0.7V0.3Ba1.5Sr0.5Cu1O4.6+z,Hg0.7V0.3Ba1.5Sr0.5Cu1O4.6,"{'Ba': 1.5, 'Cu': 1.0, 'Hg': 0.7000000000000001, 'O': 4.6, 'Sr': 0.5, 'V': 0.30000000000000004}",85.0,75.0,10.0,2,Hg0.7 V0.3 Ba1.5 Sr0.5 Cu1 O4.6
3642,"[2135, 7846]",Tl1Ba1.5La0.5Cu1O5-Y,Tl1Ba1.5La0.5Cu1O5,"{'Ba': 1.5, 'Cu': 1.0, 'La': 0.5, 'O': 5.0, 'Tl': 1.0}",35.0,34.15,0.85,2,Tl1 Ba1.5 La0.5 Cu1 O5
3643,[3706],Dy1Ba1.5Sr0.5Cu3O6.9,Dy1Ba1.5Sr0.5Cu3O6.9,"{'Ba': 1.5, 'Cu': 3.0, 'Dy': 1.0, 'O': 6.9, 'Sr': 0.5}",86.3,86.3,0.0,1,Dy1 Ba1.5 Sr0.5 Cu3 O6.9
3644,"[6132, 6168]",Dy1Ba1.5Sr0.5Cu3O7-Z,Dy1Ba1.5Sr0.5Cu3O7,"{'Ba': 1.5, 'Cu': 3.0, 'Dy': 1.0, 'O': 7.0, 'Sr': 0.5}",86.5,86.5,0.0,2,Dy1 Ba1.5 Sr0.5 Cu3 O7
3645,[9946],Eu0.6Pr0.4Ba1.5Sr0.5Cu3O6.89,Eu0.6Pr0.4Ba1.5Sr0.5Cu3O6.89,"{'Ba': 1.5, 'Cu': 3.0, 'Eu': 0.6000000000000001, 'O': 6.89, 'Pr': 0.4, 'Sr': 0.5}",34.0,34.0,0.0,1,Eu0.6 Pr0.4 Ba1.5 Sr0.5 Cu3 O6.89
3646,[9947],Eu1Ba1.5Pr0.3Sr0.2Cu3O6.81,Eu1Ba1.5Pr0.3Sr0.2Cu3O6.81,"{'Ba': 1.5, 'Cu': 3.0, 'Eu': 1.0, 'O': 6.8100000000000005, 'Pr': 0.30000000000000004, 'Sr': 0.2}",28.0,28.0,0.0,1,Eu1 Ba1.5 Pr0.3 Sr0.2 Cu3 O6.81
3647,"[6130, 6166]",Eu1Ba1.5Sr0.5Cu3O7-Z,Eu1Ba1.5Sr0.5Cu3O7,"{'Ba': 1.5, 'Cu': 3.0, 'Eu': 1.0, 'O': 7.0, 'Sr': 0.5}",76.8,76.8,0.0,2,Eu1 Ba1.5 Sr0.5 Cu3 O7
3648,"[4913, 9308]",Gd1Ba1.5Sr0.5Cu3O6.63,Gd1Ba1.5Sr0.5Cu3O6.63,"{'Ba': 1.5, 'Cu': 3.0, 'Gd': 1.0, 'O': 6.63, 'Sr': 0.5}",18.0,17.0,1.0,2,Gd1 Ba1.5 Sr0.5 Cu3 O6.63
3649,[9309],Gd1Ba1.5Sr0.5Cu3O6.72,Gd1Ba1.5Sr0.5Cu3O6.72,"{'Ba': 1.5, 'Cu': 3.0, 'Gd': 1.0, 'O': 6.72, 'Sr': 0.5}",32.0,32.0,0.0,1,Gd1 Ba1.5 Sr0.5 Cu3 O6.72
3650,[4914],Gd1Ba1.5Sr0.5Cu3O6.73,Gd1Ba1.5Sr0.5Cu3O6.73,"{'Ba': 1.5, 'Cu': 3.0, 'Gd': 1.0, 'O': 6.73, 'Sr': 0.5}",50.0,50.0,0.0,1,Gd1 Ba1.5 Sr0.5 Cu3 O6.73
3651,"[4915, 9310]",Gd1Ba1.5Sr0.5Cu3O6.93,Gd1Ba1.5Sr0.5Cu3O6.93,"{'Ba': 1.5, 'Cu': 3.0, 'Gd': 1.0, 'O': 6.93, 'Sr': 0.5}",89.0,85.5,3.5,2,Gd1 Ba1.5 Sr0.5 Cu3 O6.93
3652,"[6131, 6167]",Gd1Ba1.5Sr0.5Cu3O7-Z,Gd1Ba1.5Sr0.5Cu3O7,"{'Ba': 1.5, 'Cu': 3.0, 'Gd': 1.0, 'O': 7.0, 'Sr': 0.5}",85.6,85.6,0.0,2,Gd1 Ba1.5 Sr0.5 Cu3 O7
3653,"[6133, 6169]",Ho1Ba1.5Sr0.5Cu3O7-Z,Ho1Ba1.5Sr0.5Cu3O7,"{'Ba': 1.5, 'Cu': 3.0, 'Ho': 1.0, 'O': 7.0, 'Sr': 0.5}",86.8,86.8,0.0,2,Ho1 Ba1.5 Sr0.5 Cu3 O7
3654,[4754],Y1Ba1.5La0.5Cu3O7,Y1Ba1.5La0.5Cu3O7,"{'Ba': 1.5, 'Cu': 3.0, 'La': 0.5, 'O': 7.0, 'Y': 1.0}",0.30000000000000004,0.30000000000000004,0.0,1,Y1 Ba1.5 La0.5 Cu3 O7
3655,[9444],Y1Ba1.5La0.5Cu3O7.06,Y1Ba1.5La0.5Cu3O7.06,"{'Ba': 1.5, 'Cu': 3.0, 'La': 0.5, 'O': 7.06, 'Y': 1.0}",22.0,22.0,0.0,1,Y1 Ba1.5 La0.5 Cu3 O7.06
3656,[389],Y1Ba1.5La0.5Cu3O7.08,Y1Ba1.5La0.5Cu3O7.08,"{'Ba': 1.5, 'Cu': 3.0, 'La': 0.5, 'O': 7.08, 'Y': 1.0}",38.0,38.0,0.0,1,Y1 Ba1.5 La0.5 Cu3 O7.08
3657,[4784],Y1Ba1.5La0.5Cu3O7.1,Y1Ba1.5La0.5Cu3O7.1,"{'Ba': 1.5, 'Cu': 3.0, 'La': 0.5, 'O': 7.1, 'Y': 1.0}",30.0,30.0,0.0,1,Y1 Ba1.5 La0.5 Cu3 O7.1
3658,"[9374, 9437]",Y1Ba1.5La0.5Cu3O7.17,Y1Ba1.5La0.5Cu3O7.17,"{'Ba': 1.5, 'Cu': 3.0, 'La': 0.5, 'O': 7.17, 'Y': 1.0}",57.0,55.55,1.45,2,Y1 Ba1.5 La0.5 Cu3 O7.17
3659,[2488],Y1Ba1.5La0.5Cu3O7.19,Y1Ba1.5La0.5Cu3O7.19,"{'Ba': 1.5, 'Cu': 3.0, 'La': 0.5, 'O': 7.19, 'Y': 1.0}",38.3,38.3,0.0,1,Y1 Ba1.5 La0.5 Cu3 O7.19
3660,[9313],Y1Ba1.5La0.5Cu3O7.22,Y1Ba1.5La0.5Cu3O7.22,"{'Ba': 1.5, 'Cu': 3.0, 'La': 0.5, 'O': 7.22, 'Y': 1.0}",36.6,36.6,0.0,1,Y1 Ba1.5 La0.5 Cu3 O7.22
3661,[10312],La0.8Pr0.2Ba1.5Sr0.5Cu3O6.906,La0.8Pr0.2Ba1.5Sr0.5Cu3O6.906,"{'Ba': 1.5, 'Cu': 3.0, 'La': 0.8, 'O': 6.906, 'Pr': 0.2, 'Sr': 0.5}",24.0,24.0,0.0,1,La0.8 Pr0.2 Ba1.5 Sr0.5 Cu3 O6.906
3662,[10311],La0.9Pr0.1Ba1.5Sr0.5Cu3O6.904,La0.9Pr0.1Ba1.5Sr0.5Cu3O6.904,"{'Ba': 1.5, 'Cu': 3.0, 'La': 0.9, 'O': 6.904, 'Pr': 0.1, 'Sr': 0.5}",44.0,44.0,0.0,1,La0.9 Pr0.1 Ba1.5 Sr0.5 Cu3 O6.904
3663,[10310],La1Ba1.5Sr0.5Cu3O6.902,La1Ba1.5Sr0.5Cu3O6.902,"{'Ba': 1.5, 'Cu': 3.0, 'La': 1.0, 'O': 6.902, 'Sr': 0.5}",54.0,54.0,0.0,1,La1 Ba1.5 Sr0.5 Cu3 O6.902
3664,[4166],La1Ba1.5Sr0.5Cu3O6.948,La1Ba1.5Sr0.5Cu3O6.948,"{'Ba': 1.5, 'Cu': 3.0, 'La': 1.0, 'O': 6.948, 'Sr': 0.5}",57.1,57.1,0.0,1,La1 Ba1.5 Sr0.5 Cu3 O6.948
3665,[4820],La1Ba1.5Sr0.5Cu3O6.967,La1Ba1.5Sr0.5Cu3O6.967,"{'Ba': 1.5, 'Cu': 3.0, 'La': 1.0, 'O': 6.967, 'Sr': 0.5}",65.2,65.2,0.0,1,La1 Ba1.5 Sr0.5 Cu3 O6.967
3666,"[6127, 6163]",La1Ba1.5Sr0.5Cu3O7-Z,La1Ba1.5Sr0.5Cu3O7,"{'Ba': 1.5, 'Cu': 3.0, 'La': 1.0, 'O': 7.0, 'Sr': 0.5}",52.4,52.4,0.0,2,La1 Ba1.5 Sr0.5 Cu3 O7
3667,[4173],La1.3Ba1.5Sr0.2Cu3O6.901,La1.3Ba1.5Sr0.2Cu3O6.901,"{'Ba': 1.5, 'Cu': 3.0, 'La': 1.3, 'O': 6.901, 'Sr': 0.2}",43.8,43.8,0.0,1,La1.3 Ba1.5 Sr0.2 Cu3 O6.901
3668,"[4900, 4901, 4902, 4903]",Nd1Ba1.5Sr0.5Cu3O6.91,Nd1Ba1.5Sr0.5Cu3O6.91,"{'Ba': 1.5, 'Cu': 3.0, 'Nd': 1.0, 'O': 6.91, 'Sr': 0.5}",83.0,77.0,6.0,4,Nd1 Ba1.5 Sr0.5 Cu3 O6.91
3669,"[6128, 6164]",Nd1Ba1.5Sr0.5Cu3O7-Z,Nd1Ba1.5Sr0.5Cu3O7,"{'Ba': 1.5, 'Cu': 3.0, 'Nd': 1.0, 'O': 7.0, 'Sr': 0.5}",56.4,56.4,0.0,2,Nd1 Ba1.5 Sr0.5 Cu3 O7
3670,[4845],Nd1.3Ba1.5Sr0.2Cu3O6.917,Nd1.3Ba1.5Sr0.2Cu3O6.917,"{'Ba': 1.5, 'Cu': 3.0, 'Nd': 1.3, 'O': 6.917, 'Sr': 0.2}",36.0,36.0,0.0,1,Nd1.3 Ba1.5 Sr0.2 Cu3 O6.917
3671,[5785],Nd1.5Ba1.5Cu3O7.12,Nd1.5Ba1.5Cu3O7.12,"{'Ba': 1.5, 'Cu': 3.0, 'Nd': 1.5, 'O': 7.12}",15.4,15.4,0.0,1,Nd1.5 Ba1.5 Cu3 O7.12
3672,[1242],Nd1.5Ba1.5Cu3O7.14,Nd1.5Ba1.5Cu3O7.14,"{'Ba': 1.5, 'Cu': 3.0, 'Nd': 1.5, 'O': 7.14}",20.0,20.0,0.0,1,Nd1.5 Ba1.5 Cu3 O7.14
3673,[6924],Y1Ba1.5Sr0.5Cu3O6.75,Y1Ba1.5Sr0.5Cu3O6.75,"{'Ba': 1.5, 'Cu': 3.0, 'O': 6.75, 'Sr': 0.5, 'Y': 1.0}",49.9,49.9,0.0,1,Y1 Ba1.5 Sr0.5 Cu3 O6.75
3674,[6925],Y1Ba1.5Sr0.5Cu3O6.85,Y1Ba1.5Sr0.5Cu3O6.85,"{'Ba': 1.5, 'Cu': 3.0, 'O': 6.85, 'Sr': 0.5, 'Y': 1.0}",72.9,72.9,0.0,1,Y1 Ba1.5 Sr0.5 Cu3 O6.85
3675,[6926],Y1Ba1.5Sr0.5Cu3O6.9,Y1Ba1.5Sr0.5Cu3O6.9,"{'Ba': 1.5, 'Cu': 3.0, 'O': 6.9, 'Sr': 0.5, 'Y': 1.0}",86.3,86.3,0.0,1,Y1 Ba1.5 Sr0.5 Cu3 O6.9
3676,[6927],Y1Ba1.5Sr0.5Cu3O6.91,Y1Ba1.5Sr0.5Cu3O6.91,"{'Ba': 1.5, 'Cu': 3.0, 'O': 6.91, 'Sr': 0.5, 'Y': 1.0}",86.3,86.3,0.0,1,Y1 Ba1.5 Sr0.5 Cu3 O6.91
3677,[4816],Y1Ba1.5Sr0.5Cu3O6.938,Y1Ba1.5Sr0.5Cu3O6.938,"{'Ba': 1.5, 'Cu': 3.0, 'O': 6.938, 'Sr': 0.5, 'Y': 1.0}",87.6,87.6,0.0,1,Y1 Ba1.5 Sr0.5 Cu3 O6.938
3678,[6928],Y1Ba1.5Sr0.5Cu3O6.95,Y1Ba1.5Sr0.5Cu3O6.95,"{'Ba': 1.5, 'Cu': 3.0, 'O': 6.95, 'Sr': 0.5, 'Y': 1.0}",85.9,85.9,0.0,1,Y1 Ba1.5 Sr0.5 Cu3 O6.95
3679,[8995],Y1Ba1.5Sr0.5Cu3O6.96,Y1Ba1.5Sr0.5Cu3O6.96,"{'Ba': 1.5, 'Cu': 3.0, 'O': 6.96, 'Sr': 0.5, 'Y': 1.0}",89.0,89.0,0.0,1,Y1 Ba1.5 Sr0.5 Cu3 O6.96
3680,[6912],Y1Ba1.5Sr0.5Cu3O6.98,Y1Ba1.5Sr0.5Cu3O6.98,"{'Ba': 1.5, 'Cu': 3.0, 'O': 6.98, 'Sr': 0.5, 'Y': 1.0}",86.0,86.0,0.0,1,Y1 Ba1.5 Sr0.5 Cu3 O6.98
3681,"[6129, 6165]",Sm1Ba1.5Sr0.5Cu3O7-Z,Sm1Ba1.5Sr0.5Cu3O7,"{'Ba': 1.5, 'Cu': 3.0, 'O': 7.0, 'Sm': 1.0, 'Sr': 0.5}",70.7,70.7,0.0,2,Sm1 Ba1.5 Sr0.5 Cu3 O7
3682,"[6134, 6170, 20377]",Y1Ba1.5Sr0.5Cu3O7-Z,Y1Ba1.5Sr0.5Cu3O7,"{'Ba': 1.5, 'Cu': 3.0, 'O': 7.0, 'Sr': 0.5, 'Y': 1.0}",87.4,86.7666666667,0.8956685895000001,3,Y1 Ba1.5 Sr0.5 Cu3 O7
3683,[579],Y1Ba1.54La0.46Cu3O7.118,Y1Ba1.54La0.46Cu3O7.118,"{'Ba': 1.54, 'Cu': 3.0, 'La': 0.46, 'O': 7.118, 'Y': 1.0}",44.1,44.1,0.0,1,Y1 Ba1.54 La0.46 Cu3 O7.118
3684,[4404],Ca0.2Ba1.55La1.25Cu3O6.98,Ca0.2Ba1.55La1.25Cu3O6.98,"{'Ba': 1.55, 'Ca': 0.2, 'Cu': 3.0, 'La': 1.25, 'O': 6.98}",10.4,10.4,0.0,1,Ca0.2 Ba1.55 La1.25 Cu3 O6.98
3685,[4405],Ca0.2Ba1.55La1.25Cu3O6.99,Ca0.2Ba1.55La1.25Cu3O6.99,"{'Ba': 1.55, 'Ca': 0.2, 'Cu': 3.0, 'La': 1.25, 'O': 6.99}",14.4,14.4,0.0,1,Ca0.2 Ba1.55 La1.25 Cu3 O6.99
3686,[4406],Ca0.2Ba1.55La1.25Cu3O7.01,Ca0.2Ba1.55La1.25Cu3O7.01,"{'Ba': 1.55, 'Ca': 0.2, 'Cu': 3.0, 'La': 1.25, 'O': 7.01}",25.1,25.1,0.0,1,Ca0.2 Ba1.55 La1.25 Cu3 O7.01
3687,[4407],Ca0.2Ba1.55La1.25Cu3O7.03,Ca0.2Ba1.55La1.25Cu3O7.03,"{'Ba': 1.55, 'Ca': 0.2, 'Cu': 3.0, 'La': 1.25, 'O': 7.03}",34.7,34.7,0.0,1,Ca0.2 Ba1.55 La1.25 Cu3 O7.03
3688,[4408],Ca0.2Ba1.55La1.25Cu3O7.05,Ca0.2Ba1.55La1.25Cu3O7.05,"{'Ba': 1.55, 'Ca': 0.2, 'Cu': 3.0, 'La': 1.25, 'O': 7.05}",41.1,41.1,0.0,1,Ca0.2 Ba1.55 La1.25 Cu3 O7.05
3689,[4409],Ca0.2Ba1.55La1.25Cu3O7.07,Ca0.2Ba1.55La1.25Cu3O7.07,"{'Ba': 1.55, 'Ca': 0.2, 'Cu': 3.0, 'La': 1.25, 'O': 7.07}",46.1,46.1,0.0,1,Ca0.2 Ba1.55 La1.25 Cu3 O7.07
3690,[3220],La1.25Ca0.2Ba1.55Cu3O7.082,La1.25Ca0.2Ba1.55Cu3O7.082,"{'Ba': 1.55, 'Ca': 0.2, 'Cu': 3.0, 'La': 1.25, 'O': 7.082}",50.2,50.2,0.0,1,La1.25 Ca0.2 Ba1.55 Cu3 O7.082
3691,[4410],Ca0.2Ba1.55La1.25Cu3O7.11,Ca0.2Ba1.55La1.25Cu3O7.11,"{'Ba': 1.55, 'Ca': 0.2, 'Cu': 3.0, 'La': 1.25, 'O': 7.11}",59.7,59.7,0.0,1,Ca0.2 Ba1.55 La1.25 Cu3 O7.11
3692,[12050],Ca0.2Ba1.55La1.25Cu3O7.159,Ca0.2Ba1.55La1.25Cu3O7.159,"{'Ba': 1.55, 'Ca': 0.2, 'Cu': 3.0, 'La': 1.25, 'O': 7.159}",68.7,68.7,0.0,1,Ca0.2 Ba1.55 La1.25 Cu3 O7.159
3693,"[6680, 23958]",Ca0.2La0.8Ba1.55La0.45Cu3O7.16,Ca0.2La0.8Ba1.55La0.45Cu3O7.16,"{'Ba': 1.55, 'Ca': 0.2, 'Cu': 3.0, 'La': 1.25, 'O': 7.16}",68.5,68.25,0.25,2,Ca0.2 La1.25 Ba1.55 Cu3 O7.16
3694,[5784],Nd1.45Ba1.55Cu3O7.08,Nd1.45Ba1.55Cu3O7.08,"{'Ba': 1.55, 'Cu': 3.0, 'Nd': 1.45, 'O': 7.08}",26.5,26.5,0.0,1,Nd1.45 Ba1.55 Cu3 O7.08
3695,[5947],Ba1.6Sr0.4Yb0.95Ca0.05Cu3O6.56,Ba1.6Sr0.4Yb0.95Ca0.05Cu3O6.56,"{'Ba': 1.6, 'Ca': 0.05, 'Cu': 3.0, 'O': 6.5600000000000005, 'Sr': 0.4, 'Yb': 0.9500000000000001}",30.0,30.0,0.0,1,Ba1.6 Sr0.4 Yb0.95 Ca0.05 Cu3 O6.56
3696,[5946],Ba1.6Sr0.4Yb0.95Ca0.05Cu3O6.58,Ba1.6Sr0.4Yb0.95Ca0.05Cu3O6.58,"{'Ba': 1.6, 'Ca': 0.05, 'Cu': 3.0, 'O': 6.58, 'Sr': 0.4, 'Yb': 0.9500000000000001}",55.0,55.0,0.0,1,Ba1.6 Sr0.4 Yb0.95 Ca0.05 Cu3 O6.58
3697,[5945],Ba1.6Sr0.4Yb0.95Ca0.05Cu3O6.76,Ba1.6Sr0.4Yb0.95Ca0.05Cu3O6.76,"{'Ba': 1.6, 'Ca': 0.05, 'Cu': 3.0, 'O': 6.76, 'Sr': 0.4, 'Yb': 0.9500000000000001}",80.0,80.0,0.0,1,Ba1.6 Sr0.4 Yb0.95 Ca0.05 Cu3 O6.76
3698,[5944],Ba1.6Sr0.4Yb0.95Ca0.05Cu3O6.8,Ba1.6Sr0.4Yb0.95Ca0.05Cu3O6.8,"{'Ba': 1.6, 'Ca': 0.05, 'Cu': 3.0, 'O': 6.8, 'Sr': 0.4, 'Yb': 0.9500000000000001}",80.0,80.0,0.0,1,Ba1.6 Sr0.4 Yb0.95 Ca0.05 Cu3 O6.8
3699,[1203],Y0.95Ca0.05Ba1.6Sr0.4Cu4O7.8,Y0.95Ca0.05Ba1.6Sr0.4Cu4O7.8,"{'Ba': 1.6, 'Ca': 0.05, 'Cu': 4.0, 'O': 7.8, 'Sr': 0.4, 'Y': 0.9500000000000001}",82.0,82.0,0.0,1,Y0.95 Ca0.05 Ba1.6 Sr0.4 Cu4 O7.8
3700,[4788],Y0.9Ca0.1Ba1.6La0.4Cu3O7.09,Y0.9Ca0.1Ba1.6La0.4Cu3O7.09,"{'Ba': 1.6, 'Ca': 0.1, 'Cu': 3.0, 'La': 0.4, 'O': 7.09, 'Y': 0.9}",72.0,72.0,0.0,1,Y0.9 Ca0.1 Ba1.6 La0.4 Cu3 O7.09
3701,[4790],Y0.9Ca0.1Ba1.6La6Cu3O7.18,Y0.9Ca0.1Ba1.6La6Cu3O7.18,"{'Ba': 1.6, 'Ca': 0.1, 'Cu': 3.0, 'La': 6.0, 'O': 7.18, 'Y': 0.9}",43.0,43.0,0.0,1,Y0.9 Ca0.1 Ba1.6 La6 Cu3 O7.18
3702,[4617],Yb0.9Ca0.1Ba1.6Sr0.4Cu3O6.89,Yb0.9Ca0.1Ba1.6Sr0.4Cu3O6.89,"{'Ba': 1.6, 'Ca': 0.1, 'Cu': 3.0, 'O': 6.89, 'Sr': 0.4, 'Yb': 0.9}",62.1,62.1,0.0,1,Yb0.9 Ca0.1 Ba1.6 Sr0.4 Cu3 O6.89
3703,[1204],Y0.9Ca0.1Ba1.6Sr0.4Cu4O7.8,Y0.9Ca0.1Ba1.6Sr0.4Cu4O7.8,"{'Ba': 1.6, 'Ca': 0.1, 'Cu': 4.0, 'O': 7.8, 'Sr': 0.4, 'Y': 0.9}",85.5,85.5,0.0,1,Y0.9 Ca0.1 Ba1.6 Sr0.4 Cu4 O7.8
3704,[2793],Yb0.9Ca0.1Ba1.6Sr0.4Cu4O8,Yb0.9Ca0.1Ba1.6Sr0.4Cu4O8,"{'Ba': 1.6, 'Ca': 0.1, 'Cu': 4.0, 'O': 8.0, 'Sr': 0.4, 'Yb': 0.9}",86.0,86.0,0.0,1,Yb0.9 Ca0.1 Ba1.6 Sr0.4 Cu4 O8
3705,[3219],La1.25Ca0.15Ba1.6Cu3O7.052,La1.25Ca0.15Ba1.6Cu3O7.052,"{'Ba': 1.6, 'Ca': 0.15, 'Cu': 3.0, 'La': 1.25, 'O': 7.052}",45.6,45.6,0.0,1,La1.25 Ca0.15 Ba1.6 Cu3 O7.052
3706,[5950],Ba1.6Sr0.4Yb0.85Ca0.15Cu3O6.36,Ba1.6Sr0.4Yb0.85Ca0.15Cu3O6.36,"{'Ba': 1.6, 'Ca': 0.15, 'Cu': 3.0, 'O': 6.36, 'Sr': 0.4, 'Yb': 0.85}",19.0,19.0,0.0,1,Ba1.6 Sr0.4 Yb0.85 Ca0.15 Cu3 O6.36
3707,[5949],Ba1.6Sr0.4Yb0.85Ca0.15Cu3O6.6,Ba1.6Sr0.4Yb0.85Ca0.15Cu3O6.6,"{'Ba': 1.6, 'Ca': 0.15, 'Cu': 3.0, 'O': 6.6, 'Sr': 0.4, 'Yb': 0.85}",61.0,61.0,0.0,1,Ba1.6 Sr0.4 Yb0.85 Ca0.15 Cu3 O6.6
3708,[5948],Ba1.6Sr0.4Yb0.85Ca0.15Cu3O6.83,Ba1.6Sr0.4Yb0.85Ca0.15Cu3O6.83,"{'Ba': 1.6, 'Ca': 0.15, 'Cu': 3.0, 'O': 6.83, 'Sr': 0.4, 'Yb': 0.85}",76.0,76.0,0.0,1,Ba1.6 Sr0.4 Yb0.85 Ca0.15 Cu3 O6.83
3709,[10989],Hg2Ba1.6Sr0.4Y0.8Ca0.2Cu2O8-z,Hg2Ba1.6Sr0.4Y0.8Ca0.2Cu2O8,"{'Ba': 1.6, 'Ca': 0.2, 'Cu': 2.0, 'Hg': 2.0, 'O': 8.0, 'Sr': 0.4, 'Y': 0.8}",38.5,38.5,0.0,1,Hg2 Ba1.6 Sr0.4 Y0.8 Ca0.2 Cu2 O8
3710,[4830],Nd1.2Ba1.6Ca0.2Cu3O6.929,Nd1.2Ba1.6Ca0.2Cu3O6.929,"{'Ba': 1.6, 'Ca': 0.2, 'Cu': 3.0, 'Nd': 1.2, 'O': 6.929}",51.0,51.0,0.0,1,Nd1.2 Ba1.6 Ca0.2 Cu3 O6.929
3711,[5963],Ba1.6Sr0.4Yb0.8Ca0.2Cu3O6.04,Ba1.6Sr0.4Yb0.8Ca0.2Cu3O6.04,"{'Ba': 1.6, 'Ca': 0.2, 'Cu': 3.0, 'O': 6.04, 'Sr': 0.4, 'Yb': 0.8}",13.0,13.0,0.0,1,Ba1.6 Sr0.4 Yb0.8 Ca0.2 Cu3 O6.04
3712,[2796],YbCa0.2Ba1.6Sr0.4Cu4O8,YbCa0.2Ba1.6Sr0.4Cu4O8,"{'Ba': 1.6, 'Ca': 0.2, 'Cu': 4.0, 'O': 8.0, 'Sr': 0.4, 'Yb': 1.0}",86.0,86.0,0.0,1,Yb1 Ca0.2 Ba1.6 Sr0.4 Cu4 O8
3713,[5491],Er0.76Ca0.24Ba1.6Sr0.4Cu2.76Co0.24O6.88,Er0.76Ca0.24Ba1.6Sr0.4Cu2.76Co0.24O6.88,"{'Ba': 1.6, 'Ca': 0.24, 'Co': 0.24, 'Cu': 2.76, 'Er': 0.76, 'O': 6.88, 'Sr': 0.4}",77.0,77.0,0.0,1,Er0.76 Ca0.24 Ba1.6 Sr0.4 Cu2.76 Co0.24 O6.88
3714,[5956],Ba1.6Sr0.4Yb0.75Ca0.25Cu3O6,Ba1.6Sr0.4Yb0.75Ca0.25Cu3O6,"{'Ba': 1.6, 'Ca': 0.25, 'Cu': 3.0, 'O': 6.0, 'Sr': 0.4, 'Yb': 0.75}",22.0,22.0,0.0,1,Ba1.6 Sr0.4 Yb0.75 Ca0.25 Cu3 O6
3715,"[5954, 5955]",Ba1.6Sr0.4Yb0.75Ca0.25Cu3O6.19,Ba1.6Sr0.4Yb0.75Ca0.25Cu3O6.19,"{'Ba': 1.6, 'Ca': 0.25, 'Cu': 3.0, 'O': 6.19, 'Sr': 0.4, 'Yb': 0.75}",25.0,24.0,1.0,2,Ba1.6 Sr0.4 Yb0.75 Ca0.25 Cu3 O6.19
3716,[5953],Ba1.6Sr0.4Yb0.75Ca0.25Cu3O6.3,Ba1.6Sr0.4Yb0.75Ca0.25Cu3O6.3,"{'Ba': 1.6, 'Ca': 0.25, 'Cu': 3.0, 'O': 6.3, 'Sr': 0.4, 'Yb': 0.75}",34.0,34.0,0.0,1,Ba1.6 Sr0.4 Yb0.75 Ca0.25 Cu3 O6.3
3717,[5952],Ba1.6Sr0.4Yb0.75Ca0.25Cu3O6.51,Ba1.6Sr0.4Yb0.75Ca0.25Cu3O6.51,"{'Ba': 1.6, 'Ca': 0.25, 'Cu': 3.0, 'O': 6.51, 'Sr': 0.4, 'Yb': 0.75}",66.0,66.0,0.0,1,Ba1.6 Sr0.4 Yb0.75 Ca0.25 Cu3 O6.51
3718,[5951],Ba1.6Sr0.4Yb0.75Ca0.25Cu3O6.68,Ba1.6Sr0.4Yb0.75Ca0.25Cu3O6.68,"{'Ba': 1.6, 'Ca': 0.25, 'Cu': 3.0, 'O': 6.68, 'Sr': 0.4, 'Yb': 0.75}",74.0,74.0,0.0,1,Ba1.6 Sr0.4 Yb0.75 Ca0.25 Cu3 O6.68
3719,[5964],Ba1.6Sr0.4Yb0.7Ca0.3Cu3O6,Ba1.6Sr0.4Yb0.7Ca0.3Cu3O6,"{'Ba': 1.6, 'Ca': 0.30000000000000004, 'Cu': 3.0, 'O': 6.0, 'Sr': 0.4, 'Yb': 0.7000000000000001}",41.0,41.0,0.0,1,Ba1.6 Sr0.4 Yb0.7 Ca0.3 Cu3 O6
3720,[4611],Yb0.7Ca0.3Ba1.6Sr0.4Cu3O6.1,Yb0.7Ca0.3Ba1.6Sr0.4Cu3O6.1,"{'Ba': 1.6, 'Ca': 0.30000000000000004, 'Cu': 3.0, 'O': 6.1, 'Sr': 0.4, 'Yb': 0.7000000000000001}",48.3,48.3,0.0,1,Yb0.7 Ca0.3 Ba1.6 Sr0.4 Cu3 O6.1
3721,"[2374, 4612]",Yb0.7Ca0.3Ba1.6Sr0.4Cu3O6.43,Yb0.7Ca0.3Ba1.6Sr0.4Cu3O6.43,"{'Ba': 1.6, 'Ca': 0.30000000000000004, 'Cu': 3.0, 'O': 6.43, 'Sr': 0.4, 'Yb': 0.7000000000000001}",66.3,65.3,1.0,2,Yb0.7 Ca0.3 Ba1.6 Sr0.4 Cu3 O6.43
3722,"[2373, 4613]",Yb0.7Ca0.3Ba1.6Sr0.4Cu3O6.56,Yb0.7Ca0.3Ba1.6Sr0.4Cu3O6.56,"{'Ba': 1.6, 'Ca': 0.30000000000000004, 'Cu': 3.0, 'O': 6.5600000000000005, 'Sr': 0.4, 'Yb': 0.7000000000000001}",82.4,81.35,1.05,2,Yb0.7 Ca0.3 Ba1.6 Sr0.4 Cu3 O6.56
3723,"[2372, 4614]",Yb0.7Ca0.3Ba1.6Sr0.4Cu3O6.73,Yb0.7Ca0.3Ba1.6Sr0.4Cu3O6.73,"{'Ba': 1.6, 'Ca': 0.30000000000000004, 'Cu': 3.0, 'O': 6.73, 'Sr': 0.4, 'Yb': 0.7000000000000001}",68.5,68.05,0.45,2,Yb0.7 Ca0.3 Ba1.6 Sr0.4 Cu3 O6.73
3724,"[2371, 4615, 4619]",Yb0.7Ca0.3Ba1.6Sr0.4Cu3O6.78,Yb0.7Ca0.3Ba1.6Sr0.4Cu3O6.78,"{'Ba': 1.6, 'Ca': 0.30000000000000004, 'Cu': 3.0, 'O': 6.78, 'Sr': 0.4, 'Yb': 0.7000000000000001}",44.6,36.5666666667,8.7492221877,3,Yb0.7 Ca0.3 Ba1.6 Sr0.4 Cu3 O6.78
3725,[5961],Ba1.6Sr0.4Yb0.65Ca0.35Cu2O6.4,Ba1.6Sr0.4Yb0.65Ca0.35Cu2O6.4,"{'Ba': 1.6, 'Ca': 0.35000000000000003, 'Cu': 2.0, 'O': 6.4, 'Sr': 0.4, 'Yb': 0.65}",61.0,61.0,0.0,1,Ba1.6 Sr0.4 Yb0.65 Ca0.35 Cu2 O6.4