,sc_id,supercon_formula,cleaned_formula,material_dict,highest_Tc,average_Tc,std_Tc,entry_count,composition
3024,[10294],Ba0.47K0.53Bi0.99Pr0.01O3,Ba0.47K0.53Bi0.99Pr0.01O3,"{'Ba': 0.47000000000000003, 'Bi': 0.99, 'K': 0.53, 'O': 3.0, 'Pr': 0.01}",6.4,6.4,0.0,1,Ba0.47 K0.53 Bi0.99 Pr0.01 O3
3025,[10293],Ba0.47K0.53Bi0.995Pr0.005O3,Ba0.47K0.53Bi0.995Pr0.005O3,"{'Ba': 0.47000000000000003, 'Bi': 0.995, 'K': 0.53, 'O': 3.0, 'Pr': 0.005}",9.0,9.0,0.0,1,Ba0.47 K0.53 Bi0.995 Pr0.005 O3
3026,[10292],Ba0.47K0.53Bi1O3,Ba0.47K0.53Bi1O3,"{'Ba': 0.47000000000000003, 'Bi': 1.0, 'K': 0.53, 'O': 3.0}",11.0,11.0,0.0,1,Ba0.47 K0.53 Bi1 O3
3027,[3274],Ba0.48K0.52Bi1O2.9,Ba0.48K0.52Bi1O2.9,"{'Ba': 0.48, 'Bi': 1.0, 'K': 0.52, 'O': 2.9}",21.1,21.1,0.0,1,Ba0.48 K0.52 Bi1 O2.9
3028,"[1259, 2714, 6246, 6292, 6373, 7113, 10516]",Ba0.5K0.5Bi1O3,Ba0.5K0.5Bi1O3,"{'Ba': 0.5, 'Bi': 1.0, 'K': 0.5, 'O': 3.0}",24.0,19.6642857143,2.9790595695,7,Ba0.5 K0.5 Bi1 O3
3029,[6015],Y0.74Ca0.16Sr1.6Ba0.5Cu2.78S0.22O7,Y0.74Ca0.16Sr1.6Ba0.5Cu2.78S0.22O7,"{'Ba': 0.5, 'Ca': 0.16, 'Cu': 2.7800000000000002, 'O': 7.0, 'S': 0.22, 'Sr': 1.6, 'Y': 0.74}",54.9,54.9,0.0,1,Y0.74 Ca0.16 Sr1.6 Ba0.5 Cu2.78 S0.22 O7
3030,[4087],Y0.8Ca0.2Sr1.5Ba0.5Cu2.8Cr0.2O7,Y0.8Ca0.2Sr1.5Ba0.5Cu2.8Cr0.2O7,"{'Ba': 0.5, 'Ca': 0.2, 'Cr': 0.2, 'Cu': 2.8, 'O': 7.0, 'Sr': 1.5, 'Y': 0.8}",28.0,28.0,0.0,1,Y0.8 Ca0.2 Sr1.5 Ba0.5 Cu2.8 Cr0.2 O7
3031,[4088],Y0.7Ca0.3Sr1.5Ba0.5Cu2.8Cr0.2O7,Y0.7Ca0.3Sr1.5Ba0.5Cu2.8Cr0.2O7,"{'Ba': 0.5, 'Ca': 0.30000000000000004, 'Cr': 0.2, 'Cu': 2.8, 'O': 7.0, 'Sr': 1.5, 'Y': 0.7000000000000001}",41.0,41.0,0.0,1,Y0.7 Ca0.3 Sr1.5 Ba0.5 Cu2.8 Cr0.2 O7
3032,[4647],Pb0.5Cd0.5Sr1.5Ba0.5Ca0.5Y0.5Cu2O7,Pb0.5Cd0.5Sr1.5Ba0.5Ca0.5Y0.5Cu2O7,"{'Ba': 0.5, 'Ca': 0.5, 'Cd': 0.5, 'Cu': 2.0, 'O': 7.0, 'Pb': 0.5, 'Sr': 1.5, 'Y': 0.5}",49.0,49.0,0.0,1,Pb0.5 Cd0.5 Sr1.5 Ba0.5 Ca0.5 Y0.5 Cu2 O7
3033,[4143],Sr1.5Ba0.5Cu1F2O2,Sr1.5Ba0.5Cu1F2O2,"{'Ba': 0.5, 'Cu': 1.0, 'F': 2.0, 'O': 2.0, 'Sr': 1.5}",62.0,62.0,0.0,1,Sr1.5 Ba0.5 Cu1 F2 O2
3034,[6],Ba0.5La1.5Cu1O4-Y,Ba0.5La1.5Cu1O4,"{'Ba': 0.5, 'Cu': 1.0, 'La': 1.5, 'O': 4.0}",23.0,23.0,0.0,1,Ba0.5 La1.5 Cu1 O4
3035,[1922],Pb1Sr1Ba0.5La0.5Cu2O6-Z,Pb1Sr1Ba0.5La0.5Cu2O6,"{'Ba': 0.5, 'Cu': 2.0, 'La': 0.5, 'O': 6.0, 'Pb': 1.0, 'Sr': 1.0}",27.0,27.0,0.0,1,Pb1 Sr1 Ba0.5 La0.5 Cu2 O6
3036,[5358],Sr1.5Ba0.5Y1Cu2.8Ga0.2O6.96,Sr1.5Ba0.5Y1Cu2.8Ga0.2O6.96,"{'Ba': 0.5, 'Cu': 2.8, 'Ga': 0.2, 'O': 6.96, 'Sr': 1.5, 'Y': 1.0}",32.0,32.0,0.0,1,Sr1.5 Ba0.5 Y1 Cu2.8 Ga0.2 O6.96
3037,[5352],Sr1.5Ba0.5Y1Cu2.8Ga0.2O7,Sr1.5Ba0.5Y1Cu2.8Ga0.2O7,"{'Ba': 0.5, 'Cu': 2.8, 'Ga': 0.2, 'O': 7.0, 'Sr': 1.5, 'Y': 1.0}",38.0,38.0,0.0,1,Sr1.5 Ba0.5 Y1 Cu2.8 Ga0.2 O7
3038,[5357],Sr1.5Ba0.5Y1Cu2.8Ga0.2O7.1,Sr1.5Ba0.5Y1Cu2.8Ga0.2O7.1,"{'Ba': 0.5, 'Cu': 2.8, 'Ga': 0.2, 'O': 7.1, 'Sr': 1.5, 'Y': 1.0}",50.0,50.0,0.0,1,Sr1.5 Ba0.5 Y1 Cu2.8 Ga0.2 O7.1
3039,[5356],Sr1.5Ba0.5Y1Cu2.8Ga0.2O7.14,Sr1.5Ba0.5Y1Cu2.8Ga0.2O7.14,"{'Ba': 0.5, 'Cu': 2.8, 'Ga': 0.2, 'O': 7.14, 'Sr': 1.5, 'Y': 1.0}",56.0,56.0,0.0,1,Sr1.5 Ba0.5 Y1 Cu2.8 Ga0.2 O7.14
3040,[5355],Sr1.5Ba0.5Y1Cu2.8Ga0.2O7.2,Sr1.5Ba0.5Y1Cu2.8Ga0.2O7.2,"{'Ba': 0.5, 'Cu': 2.8, 'Ga': 0.2, 'O': 7.2, 'Sr': 1.5, 'Y': 1.0}",61.0,61.0,0.0,1,Sr1.5 Ba0.5 Y1 Cu2.8 Ga0.2 O7.2
3041,[5353],Sr1.5Ba0.5Y1Cu2.8Ge0.2O7,Sr1.5Ba0.5Y1Cu2.8Ge0.2O7,"{'Ba': 0.5, 'Cu': 2.8, 'Ge': 0.2, 'O': 7.0, 'Sr': 1.5, 'Y': 1.0}",25.0,25.0,0.0,1,Sr1.5 Ba0.5 Y1 Cu2.8 Ge0.2 O7
3042,[5354],Sr1.5Ba0.5Y1Cu2.8Mo0.2O7.03,Sr1.5Ba0.5Y1Cu2.8Mo0.2O7.03,"{'Ba': 0.5, 'Cu': 2.8, 'Mo': 0.2, 'O': 7.03, 'Sr': 1.5, 'Y': 1.0}",26.0,26.0,0.0,1,Sr1.5 Ba0.5 Y1 Cu2.8 Mo0.2 O7.03
3043,[5351],Sr1.5Ba0.5Y1Cu2.8Ti0.2O7,Sr1.5Ba0.5Y1Cu2.8Ti0.2O7,"{'Ba': 0.5, 'Cu': 2.8, 'O': 7.0, 'Sr': 1.5, 'Ti': 0.2, 'Y': 1.0}",35.0,35.0,0.0,1,Sr1.5 Ba0.5 Y1 Cu2.8 Ti0.2 O7
3044,[5360],Sr1.5Ba0.5Y1Cu2.8Ti0.2O7.08,Sr1.5Ba0.5Y1Cu2.8Ti0.2O7.08,"{'Ba': 0.5, 'Cu': 2.8, 'O': 7.08, 'Sr': 1.5, 'Ti': 0.2, 'Y': 1.0}",52.0,52.0,0.0,1,Sr1.5 Ba0.5 Y1 Cu2.8 Ti0.2 O7.08
3045,[5359],Sr1.5Ba0.5Y1Cu2.8Ti0.2O7.2,Sr1.5Ba0.5Y1Cu2.8Ti0.2O7.2,"{'Ba': 0.5, 'Cu': 2.8, 'O': 7.2, 'Sr': 1.5, 'Ti': 0.2, 'Y': 1.0}",78.0,78.0,0.0,1,Sr1.5 Ba0.5 Y1 Cu2.8 Ti0.2 O7.2
3046,[6916],Y1Ba0.5Sr1.5Cu3O6.98,Y1Ba0.5Sr1.5Cu3O6.98,"{'Ba': 0.5, 'Cu': 3.0, 'O': 6.98, 'Sr': 1.5, 'Y': 1.0}",78.0,78.0,0.0,1,Y1 Ba0.5 Sr1.5 Cu3 O6.98
3047,[7406],Ba0.5Nb1O2-z,Ba0.5Nb1O2,"{'Ba': 0.5, 'Nb': 1.0, 'O': 2.0}",19.75,19.75,0.0,1,Ba0.5 Nb1 O2
3048,[25167],Sr0.5Ba0.5Ni2P2,Sr0.5Ba0.5Ni2P2,"{'Ba': 0.5, 'Ni': 2.0, 'P': 2.0, 'Sr': 0.5}",2.76,2.76,0.0,1,Sr0.5 Ba0.5 Ni2 P2
3049,[10528],Ba0.51K0.49Bi1O2.974,Ba0.51K0.49Bi1O2.974,"{'Ba': 0.51, 'Bi': 1.0, 'K': 0.49, 'O': 2.974}",22.2,22.2,0.0,1,Ba0.51 K0.49 Bi1 O2.974
3050,[6250],Ba0.51K0.49Bi1O3,Ba0.51K0.49Bi1O3,"{'Ba': 0.51, 'Bi': 1.0, 'K': 0.49, 'O': 3.0}",17.2,17.2,0.0,1,Ba0.51 K0.49 Bi1 O3
3051,[3273],Ba0.52K0.48Bi1O2.93,Ba0.52K0.48Bi1O2.93,"{'Ba': 0.52, 'Bi': 1.0, 'K': 0.48, 'O': 2.93}",20.6,20.6,0.0,1,Ba0.52 K0.48 Bi1 O2.93
3052,[7112],Ba0.52K0.48Bi1O3,Ba0.52K0.48Bi1O3,"{'Ba': 0.52, 'Bi': 1.0, 'K': 0.48, 'O': 3.0}",18.7,18.7,0.0,1,Ba0.52 K0.48 Bi1 O3
3053,[3470],Ba0.525K0.475Bi1O2.917,Ba0.525K0.475Bi1O2.917,"{'Ba': 0.525, 'Bi': 1.0, 'K': 0.47500000000000003, 'O': 2.917}",25.9,25.9,0.0,1,Ba0.525 K0.475 Bi1 O2.917
3054,"[6247, 6372, 7111]",Ba0.54K0.46Bi1O3,Ba0.54K0.46Bi1O3,"{'Ba': 0.54, 'Bi': 1.0, 'K': 0.46, 'O': 3.0}",23.0,20.0,2.1602468995,3,Ba0.54 K0.46 Bi1 O3
3055,[10521],Ba0.542K0.458Bi1O3,Ba0.542K0.458Bi1O3,"{'Ba': 0.542, 'Bi': 1.0, 'K': 0.458, 'O': 3.0}",23.1,23.1,0.0,1,Ba0.542 K0.458 Bi1 O3
3056,"[1717, 3555, 3556, 6223]",Ba0.55K0.45Bi1O3,Ba0.55K0.45Bi1O3,"{'Ba': 0.55, 'Bi': 1.0, 'K': 0.45, 'O': 3.0}",30.0,24.525,3.7318728542,4,Ba0.55 K0.45 Bi1 O3
3057,[111],Sm0.45Ba0.55Cu1O3-Y,Sm0.45Ba0.55Cu1O3,"{'Ba': 0.55, 'Cu': 1.0, 'O': 3.0, 'Sm': 0.45}",69.0,69.0,0.0,1,Sm0.45 Ba0.55 Cu1 O3
3058,[10520],Ba0.553K0.447Bi1O3,Ba0.553K0.447Bi1O3,"{'Ba': 0.553, 'Bi': 1.0, 'K': 0.447, 'O': 3.0}",25.5,25.5,0.0,1,Ba0.553 K0.447 Bi1 O3
3059,"[10507, 10754]",Ba0.557K0.443Bi1O3,Ba0.557K0.443Bi1O3,"{'Ba': 0.557, 'Bi': 1.0, 'K': 0.443, 'O': 3.0}",25.0,25.0,0.0,2,Ba0.557 K0.443 Bi1 O3
3060,[10527],Ba0.57K0.43Bi1O2.983,Ba0.57K0.43Bi1O2.983,"{'Ba': 0.5700000000000001, 'Bi': 1.0, 'K': 0.43, 'O': 2.983}",25.6,25.6,0.0,1,Ba0.57 K0.43 Bi1 O2.983
3061,[7110],Ba0.57K0.43Bi1O3,Ba0.57K0.43Bi1O3,"{'Ba': 0.5700000000000001, 'Bi': 1.0, 'K': 0.43, 'O': 3.0}",21.2,21.2,0.0,1,Ba0.57 K0.43 Bi1 O3
3062,[2713],Ba0.575K0.425Bi1O3,Ba0.575K0.425Bi1O3,"{'Ba': 0.5750000000000001, 'Bi': 1.0, 'K': 0.425, 'O': 3.0}",27.3,27.3,0.0,1,Ba0.575 K0.425 Bi1 O3
3063,[10519],Ba0.584K0.416Bi1O3,Ba0.584K0.416Bi1O3,"{'Ba': 0.584, 'Bi': 1.0, 'K': 0.41600000000000004, 'O': 3.0}",28.8,28.8,0.0,1,Ba0.584 K0.416 Bi1 O3
3064,[3272],Ba0.59K0.41Bi1O2.96,Ba0.59K0.41Bi1O2.96,"{'Ba': 0.59, 'Bi': 1.0, 'K': 0.41000000000000003, 'O': 2.96}",20.4,20.4,0.0,1,Ba0.59 K0.41 Bi1 O2.96
3065,[6242],Ba0.59K0.41Bi1O3,Ba0.59K0.41Bi1O3,"{'Ba': 0.59, 'Bi': 1.0, 'K': 0.41000000000000003, 'O': 3.0}",31.0,31.0,0.0,1,Ba0.59 K0.41 Bi1 O3
3066,[10522],Ba0.595K0.405Bi1O3,Ba0.595K0.405Bi1O3,"{'Ba': 0.595, 'Bi': 1.0, 'K': 0.405, 'O': 3.0}",31.2,31.2,0.0,1,Ba0.595 K0.405 Bi1 O3
3067,[2610],Ba0.6K0.4Bi0.5Pb0.5O3,Ba0.6K0.4Bi0.5Pb0.5O3,"{'Ba': 0.6000000000000001, 'Bi': 0.5, 'K': 0.4, 'O': 3.0, 'Pb': 0.5}",7.2,7.2,0.0,1,Ba0.6 K0.4 Bi0.5 Pb0.5 O3
3068,[2608],Ba0.6K0.4Bi0.6Pb0.4O3,Ba0.6K0.4Bi0.6Pb0.4O3,"{'Ba': 0.6000000000000001, 'Bi': 0.6000000000000001, 'K': 0.4, 'O': 3.0, 'Pb': 0.4}",9.2,9.2,0.0,1,Ba0.6 K0.4 Bi0.6 Pb0.4 O3
3069,[2606],Ba0.6K0.4Bi0.7Pb0.3O3,Ba0.6K0.4Bi0.7Pb0.3O3,"{'Ba': 0.6000000000000001, 'Bi': 0.7000000000000001, 'K': 0.4, 'O': 3.0, 'Pb': 0.30000000000000004}",11.3,11.3,0.0,1,Ba0.6 K0.4 Bi0.7 Pb0.3 O3
3070,[2604],Ba0.6K0.4Bi0.8Pb0.2O3,Ba0.6K0.4Bi0.8Pb0.2O3,"{'Ba': 0.6000000000000001, 'Bi': 0.8, 'K': 0.4, 'O': 3.0, 'Pb': 0.2}",14.7,14.7,0.0,1,Ba0.6 K0.4 Bi0.8 Pb0.2 O3
3071,[2603],Ba0.6K0.4Bi0.9Pb0.1O3,Ba0.6K0.4Bi0.9Pb0.1O3,"{'Ba': 0.6000000000000001, 'Bi': 0.9, 'K': 0.4, 'O': 3.0, 'Pb': 0.1}",21.5,21.5,0.0,1,Ba0.6 K0.4 Bi0.9 Pb0.1 O3
3072,[10291],Ba0.6K0.4Bi0.925Pr0.075O3,Ba0.6K0.4Bi0.925Pr0.075O3,"{'Ba': 0.6000000000000001, 'Bi': 0.925, 'K': 0.4, 'O': 3.0, 'Pr': 0.075}",4.5,4.5,0.0,1,Ba0.6 K0.4 Bi0.925 Pr0.075 O3
3073,[10290],Ba0.6K0.4Bi0.933Pr0.067O3,Ba0.6K0.4Bi0.933Pr0.067O3,"{'Ba': 0.6000000000000001, 'Bi': 0.933, 'K': 0.4, 'O': 3.0, 'Pr': 0.067}",11.1,11.1,0.0,1,Ba0.6 K0.4 Bi0.933 Pr0.067 O3
3074,[10289],Ba0.6K0.4Bi0.955Pr0.045O3,Ba0.6K0.4Bi0.955Pr0.045O3,"{'Ba': 0.6000000000000001, 'Bi': 0.9550000000000001, 'K': 0.4, 'O': 3.0, 'Pr': 0.045}",14.4,14.4,0.0,1,Ba0.6 K0.4 Bi0.955 Pr0.045 O3
3075,[10288],Ba0.6K0.4Bi0.969Pr0.031O3,Ba0.6K0.4Bi0.969Pr0.031O3,"{'Ba': 0.6000000000000001, 'Bi': 0.969, 'K': 0.4, 'O': 3.0, 'Pr': 0.031}",18.4,18.4,0.0,1,Ba0.6 K0.4 Bi0.969 Pr0.031 O3
3076,[10287],Ba0.6K0.4Bi0.979Pr0.021O3,Ba0.6K0.4Bi0.979Pr0.021O3,"{'Ba': 0.6000000000000001, 'Bi': 0.979, 'K': 0.4, 'O': 3.0, 'Pr': 0.021}",23.5,23.5,0.0,1,Ba0.6 K0.4 Bi0.979 Pr0.021 O3
3077,[10286],Ba0.6K0.4Bi0.99Pr0.01O3,Ba0.6K0.4Bi0.99Pr0.01O3,"{'Ba': 0.6000000000000001, 'Bi': 0.99, 'K': 0.4, 'O': 3.0, 'Pr': 0.01}",26.4,26.4,0.0,1,Ba0.6 K0.4 Bi0.99 Pr0.01 O3
3078,[3471],Ba0.6K0.4Bi1O2.926,Ba0.6K0.4Bi1O2.926,"{'Ba': 0.6000000000000001, 'Bi': 1.0, 'K': 0.4, 'O': 2.926}",27.6,27.6,0.0,1,Ba0.6 K0.4 Bi1 O2.926
3079,[10526],Ba0.6K0.4Bi1O2.977,Ba0.6K0.4Bi1O2.977,"{'Ba': 0.6000000000000001, 'Bi': 1.0, 'K': 0.4, 'O': 2.977}",29.0,29.0,0.0,1,Ba0.6 K0.4 Bi1 O2.977
3080,"[510, 560, 703, 956, 1053, 1341, 1366, 1665, 1666, 1716, 2182, 2295, 2712, 3037, 3108, 4148, 4149, 6196, 6197, 6243, 6249, 6293, 7114, 7115, 7119, 7120, 10285]",Ba0.6K0.4Bi1O3,Ba0.6K0.4Bi1O3,"{'Ba': 0.6000000000000001, 'Bi': 1.0, 'K': 0.4, 'O': 3.0}",32.0,27.7833333333,3.6678028543,27,Ba0.6 K0.4 Bi1 O3
3081,[10759],Ba0.6Rb0.4Bi1O3,Ba0.6Rb0.4Bi1O3,"{'Ba': 0.6000000000000001, 'Bi': 1.0, 'O': 3.0, 'Rb': 0.4}",29.0,29.0,0.0,1,Ba0.6 Rb0.4 Bi1 O3
3082,[6430],Nd0.9Ca0.1Ba0.6La0.4Cu3O6.7,Nd0.9Ca0.1Ba0.6La0.4Cu3O6.7,"{'Ba': 0.6000000000000001, 'Ca': 0.1, 'Cu': 3.0, 'La': 0.4, 'Nd': 0.9, 'O': 6.7}",54.5,54.5,0.0,1,Nd0.9 Ca0.1 Ba0.6 La0.4 Cu3 O6.7
3083,[10992],Hg2Ba0.6Sr1.4Y0.8Ca0.2Cu2O8-z,Hg2Ba0.6Sr1.4Y0.8Ca0.2Cu2O8,"{'Ba': 0.6000000000000001, 'Ca': 0.2, 'Cu': 2.0, 'Hg': 2.0, 'O': 8.0, 'Sr': 1.4, 'Y': 0.8}",60.0,60.0,0.0,1,Hg2 Ba0.6 Sr1.4 Y0.8 Ca0.2 Cu2 O8
3084,[6431],Nd0.8Ca0.2Ba0.6La0.4Cu3O6.72,Nd0.8Ca0.2Ba0.6La0.4Cu3O6.72,"{'Ba': 0.6000000000000001, 'Ca': 0.2, 'Cu': 3.0, 'La': 0.4, 'Nd': 0.8, 'O': 6.72}",72.0,72.0,0.0,1,Nd0.8 Ca0.2 Ba0.6 La0.4 Cu3 O6.72
3085,[6432],Nd0.7Ca0.3Ba0.6La0.4Cu3O6.79,Nd0.7Ca0.3Ba0.6La0.4Cu3O6.79,"{'Ba': 0.6000000000000001, 'Ca': 0.30000000000000004, 'Cu': 3.0, 'La': 0.4, 'Nd': 0.7000000000000001, 'O': 6.79}",75.0,75.0,0.0,1,Nd0.7 Ca0.3 Ba0.6 La0.4 Cu3 O6.79
3086,[7659],Tl1Ba0.6Ca0.4La1Cu1O5,Tl1Ba0.6Ca0.4La1Cu1O5,"{'Ba': 0.6000000000000001, 'Ca': 0.4, 'Cu': 1.0, 'La': 1.0, 'O': 5.0, 'Tl': 1.0}",14.0,14.0,0.0,1,Tl1 Ba0.6 Ca0.4 La1 Cu1 O5
3087,[6433],Nd0.6Ca0.4Ba0.6La0.4Cu3O6.83,Nd0.6Ca0.4Ba0.6La0.4Cu3O6.83,"{'Ba': 0.6000000000000001, 'Ca': 0.4, 'Cu': 3.0, 'La': 0.4, 'Nd': 0.6000000000000001, 'O': 6.83}",84.0,84.0,0.0,1,Nd0.6 Ca0.4 Ba0.6 La0.4 Cu3 O6.83
3088,[6434],Nd0.5Ca0.5Ba0.6La0.4Cu3O6.77,Nd0.5Ca0.5Ba0.6La0.4Cu3O6.77,"{'Ba': 0.6000000000000001, 'Ca': 0.5, 'Cu': 3.0, 'La': 0.4, 'Nd': 0.5, 'O': 6.77}",80.5,80.5,0.0,1,Nd0.5 Ca0.5 Ba0.6 La0.4 Cu3 O6.77
3089,[6435],Nd0.4Ca0.6Ba0.6La0.4Cu3O6.71,Nd0.4Ca0.6Ba0.6La0.4Cu3O6.71,"{'Ba': 0.6000000000000001, 'Ca': 0.6000000000000001, 'Cu': 3.0, 'La': 0.4, 'Nd': 0.4, 'O': 6.71}",78.5,78.5,0.0,1,Nd0.4 Ca0.6 Ba0.6 La0.4 Cu3 O6.71
3090,[49],Dy0.4Ba0.6Cu1O3-X,Dy0.4Ba0.6Cu1O3,"{'Ba': 0.6000000000000001, 'Cu': 1.0, 'Dy': 0.4, 'O': 3.0}",91.0,91.0,0.0,1,Dy0.4 Ba0.6 Cu1 O3
3091,[51],Er0.4Ba0.6Cu1O3-X,Er0.4Ba0.6Cu1O3,"{'Ba': 0.6000000000000001, 'Cu': 1.0, 'Er': 0.4, 'O': 3.0}",93.0,93.0,0.0,1,Er0.4 Ba0.6 Cu1 O3
3092,[47],Eu0.4Ba0.6Cu1O3-X,Eu0.4Ba0.6Cu1O3,"{'Ba': 0.6000000000000001, 'Cu': 1.0, 'Eu': 0.4, 'O': 3.0}",8.0,8.0,0.0,1,Eu0.4 Ba0.6 Cu1 O3
3093,"[4144, 6587, 6727]",Sr1.4Ba0.6Cu1F2O2,Sr1.4Ba0.6Cu1F2O2,"{'Ba': 0.6000000000000001, 'Cu': 1.0, 'F': 2.0, 'O': 2.0, 'Sr': 1.4}",64.0,64.0,0.0,3,Sr1.4 Ba0.6 Cu1 F2 O2
3094,[48],Gd0.4Ba0.6Cu1O3-X,Gd0.4Ba0.6Cu1O3,"{'Ba': 0.6000000000000001, 'Cu': 1.0, 'Gd': 0.4, 'O': 3.0}",13.0,13.0,0.0,1,Gd0.4 Ba0.6 Cu1 O3
3095,[50],Ho0.4Ba0.6Cu1O3-X,Ho0.4Ba0.6Cu1O3,"{'Ba': 0.6000000000000001, 'Cu': 1.0, 'Ho': 0.4, 'O': 3.0}",94.0,94.0,0.0,1,Ho0.4 Ba0.6 Cu1 O3
3096,[7654],Tl1Ba0.6Sr0.4La1Cu1O5,Tl1Ba0.6Sr0.4La1Cu1O5,"{'Ba': 0.6000000000000001, 'Cu': 1.0, 'La': 1.0, 'O': 5.0, 'Sr': 0.4, 'Tl': 1.0}",20.0,20.0,0.0,1,Tl1 Ba0.6 Sr0.4 La1 Cu1 O5
3097,[7794],Tl1Ba0.6Sr0.4La1Cu1O5.16,Tl1Ba0.6Sr0.4La1Cu1O5.16,"{'Ba': 0.6000000000000001, 'Cu': 1.0, 'La': 1.0, 'O': 5.16, 'Sr': 0.4, 'Tl': 1.0}",22.0,22.0,0.0,1,Tl1 Ba0.6 Sr0.4 La1 Cu1 O5.16
3098,[53],Lu0.4Ba0.6Cu1O3-X,Lu0.4Ba0.6Cu1O3,"{'Ba': 0.6000000000000001, 'Cu': 1.0, 'Lu': 0.4, 'O': 3.0}",91.0,91.0,0.0,1,Lu0.4 Ba0.6 Cu1 O3
3099,[112],Sm0.4Ba0.6Cu1O3-Y,Sm0.4Ba0.6Cu1O3,"{'Ba': 0.6000000000000001, 'Cu': 1.0, 'O': 3.0, 'Sm': 0.4}",84.3,84.3,0.0,1,Sm0.4 Ba0.6 Cu1 O3
3100,[52],Tm0.4Ba0.6Cu1O3-X,Tm0.4Ba0.6Cu1O3,"{'Ba': 0.6000000000000001, 'Cu': 1.0, 'O': 3.0, 'Tm': 0.4}",93.0,93.0,0.0,1,Tm0.4 Ba0.6 Cu1 O3
3101,[68],Yb0.4Ba0.6Cu1O3-X,Yb0.4Ba0.6Cu1O3,"{'Ba': 0.6000000000000001, 'Cu': 1.0, 'O': 3.0, 'Yb': 0.4}",88.0,88.0,0.0,1,Yb0.4 Ba0.6 Cu1 O3
3102,[21984],Sr1.4Ba0.6Cu1O3.4,Sr1.4Ba0.6Cu1O3.4,"{'Ba': 0.6000000000000001, 'Cu': 1.0, 'O': 3.4, 'Sr': 1.4}",98.0,98.0,0.0,1,Sr1.4 Ba0.6 Cu1 O3.4
3103,[8001],Y0.6Pr0.4Ba0.6Sr1.4Cu3O6.89,Y0.6Pr0.4Ba0.6Sr1.4Cu3O6.89,"{'Ba': 0.6000000000000001, 'Cu': 3.0, 'O': 6.89, 'Pr': 0.4, 'Sr': 1.4, 'Y': 0.6000000000000001}",49.0,49.0,0.0,1,Y0.6 Pr0.4 Ba0.6 Sr1.4 Cu3 O6.89
3104,"[10598, 22719]",Ba0.6K0.4O3,Ba0.6K0.4O3,"{'Ba': 0.6000000000000001, 'K': 0.4, 'O': 3.0}",30.8,30.7,0.1,2,Ba0.6 K0.4 O3
3105,[23605],Ba0.6Rb0.4Ti2Sb2O1,Ba0.6Rb0.4Ti2Sb2O1,"{'Ba': 0.6000000000000001, 'O': 1.0, 'Rb': 0.4, 'Sb': 2.0, 'Ti': 2.0}",5.71,5.71,0.0,1,Ba0.6 Rb0.4 Ti2 Sb2 O1
3106,[10592],Ba0.61K0.39Bi1O3,Ba0.61K0.39Bi1O3,"{'Ba': 0.61, 'Bi': 1.0, 'K': 0.39, 'O': 3.0}",31.5,31.5,0.0,1,Ba0.61 K0.39 Bi1 O3
3107,[10518],Ba0.613K0.387Bi1O3,Ba0.613K0.387Bi1O3,"{'Ba': 0.613, 'Bi': 1.0, 'K': 0.387, 'O': 3.0}",30.7,30.7,0.0,1,Ba0.613 K0.387 Bi1 O3
3108,"[2709, 7109]",Ba0.62K0.38Bi1O3,Ba0.62K0.38Bi1O3,"{'Ba': 0.62, 'Bi': 1.0, 'K': 0.38, 'O': 3.0}",29.5,25.5,4.0,2,Ba0.62 K0.38 Bi1 O3
3109,[6244],Ba0.62K0.38Bi1O3.1,Ba0.62K0.38Bi1O3.1,"{'Ba': 0.62, 'Bi': 1.0, 'K': 0.38, 'O': 3.1}",29.5,29.5,0.0,1,Ba0.62 K0.38 Bi1 O3.1
3110,"[3101, 4147, 20778]",Ba0.625K0.375Bi1O3,Ba0.625K0.375Bi1O3,"{'Ba': 0.625, 'Bi': 1.0, 'K': 0.375, 'O': 3.0}",30.0,28.9666666667,1.0656244908999999,3,Ba0.625 K0.375 Bi1 O3
3111,"[1715, 2544, 2545, 6241, 6245, 6248, 10525, 11001, 11002]",Ba0.63K0.37Bi1O3,Ba0.63K0.37Bi1O3,"{'Ba': 0.63, 'Bi': 1.0, 'K': 0.37, 'O': 3.0}",32.0,29.7888888889,1.3160922329,9,Ba0.63 K0.37 Bi1 O3
3112,"[10506, 10753]",Ba0.635K0.365Bi1O3,Ba0.635K0.365Bi1O3,"{'Ba': 0.635, 'Bi': 1.0, 'K': 0.365, 'O': 3.0}",30.4,30.4,0.0,2,Ba0.635 K0.365 Bi1 O3
3113,[7570],Ba0.64K0.36Bi1O3,Ba0.64K0.36Bi1O3,"{'Ba': 0.64, 'Bi': 1.0, 'K': 0.36, 'O': 3.0}",28.5,28.5,0.0,1,Ba0.64 K0.36 Bi1 O3
3114,[10517],Ba0.644K0.356Bi1O3,Ba0.644K0.356Bi1O3,"{'Ba': 0.644, 'Bi': 1.0, 'K': 0.356, 'O': 3.0}",29.0,29.0,0.0,1,Ba0.644 K0.356 Bi1 O3
3115,[3469],Ba0.65K0.35Bi1O2.984,Ba0.65K0.35Bi1O2.984,"{'Ba': 0.65, 'Bi': 1.0, 'K': 0.35000000000000003, 'O': 2.984}",27.9,27.9,0.0,1,Ba0.65 K0.35 Bi1 O2.984
3116,[3271],Ba0.65K0.35Bi1O2.99,Ba0.65K0.35Bi1O2.99,"{'Ba': 0.65, 'Bi': 1.0, 'K': 0.35000000000000003, 'O': 2.99}",18.7,18.7,0.0,1,Ba0.65 K0.35 Bi1 O2.99
3117,"[484, 1714, 2711, 6222, 6251]",Ba0.65K0.35Bi1O3,Ba0.65K0.35Bi1O3,"{'Ba': 0.65, 'Bi': 1.0, 'K': 0.35000000000000003, 'O': 3.0}",31.8,28.2,3.022581678,5,Ba0.65 K0.35 Bi1 O3
3118,[1711],Dy0.35Ba0.65Pb0.1Cu0.9O3-Z,Dy0.35Ba0.65Pb0.1Cu0.9O3,"{'Ba': 0.65, 'Cu': 0.9, 'Dy': 0.35000000000000003, 'O': 3.0, 'Pb': 0.1}",90.25,90.25,0.0,1,Dy0.35 Ba0.65 Pb0.1 Cu0.9 O3
3119,[1710],Dy0.35Ba0.65Cu1O3-Z,Dy0.35Ba0.65Cu1O3,"{'Ba': 0.65, 'Cu': 1.0, 'Dy': 0.35000000000000003, 'O': 3.0}",99.25,99.25,0.0,1,Dy0.35 Ba0.65 Cu1 O3
3120,[117],Sm0.35Ba0.65Cu1O3-Y,Sm0.35Ba0.65Cu1O3,"{'Ba': 0.65, 'Cu': 1.0, 'O': 3.0, 'Sm': 0.35000000000000003}",93.1,93.1,0.0,1,Sm0.35 Ba0.65 Cu1 O3
3121,"[6198, 6240, 10524]",Ba0.66K0.34Bi1O3+Z,Ba0.66K0.34Bi1O3,"{'Ba': 0.66, 'Bi': 1.0, 'K': 0.34, 'O': 3.0}",30.0,28.7333333333,1.7913371790000001,3,Ba0.66 K0.34 Bi1 O3
3122,[10523],Ba0.665K0.335Bi1O2.985,Ba0.665K0.335Bi1O2.985,"{'Ba': 0.665, 'Bi': 1.0, 'K': 0.335, 'O': 2.985}",27.3,27.3,0.0,1,Ba0.665 K0.335 Bi1 O2.985
3123,[113],Sm0.33Ba0.67Cu1O7-X,Sm0.33Ba0.67Cu1O7,"{'Ba': 0.67, 'Cu': 1.0, 'O': 7.0, 'Sm': 0.33}",86.4,86.4,0.0,1,Sm0.33 Ba0.67 Cu1 O7
3124,[2605],Ba0.7K0.3Bi0.7Pb0.3O3,Ba0.7K0.3Bi0.7Pb0.3O3,"{'Ba': 0.7000000000000001, 'Bi': 0.7000000000000001, 'K': 0.30000000000000004, 'O': 3.0, 'Pb': 0.30000000000000004}",14.6,14.6,0.0,1,Ba0.7 K0.3 Bi0.7 Pb0.3 O3
3125,[2710],Ba0.7K0.3Bi1O3,Ba0.7K0.3Bi1O3,"{'Ba': 0.7000000000000001, 'Bi': 1.0, 'K': 0.30000000000000004, 'O': 3.0}",29.9,29.9,0.0,1,Ba0.7 K0.3 Bi1 O3
3126,[20780],Ba0.7K0.6Bi1O3,Ba0.7K0.6Bi1O3,"{'Ba': 0.7000000000000001, 'Bi': 1.0, 'K': 0.6000000000000001, 'O': 3.0}",29.35,29.35,0.0,1,Ba0.7 K0.6 Bi1 O3
3127,[114],Sm0.3Ba0.7Cu1O3-Y,Sm0.3Ba0.7Cu1O3,"{'Ba': 0.7000000000000001, 'Cu': 1.0, 'O': 3.0, 'Sm': 0.30000000000000004}",88.8,88.8,0.0,1,Sm0.3 Ba0.7 Cu1 O3
3128,[59],Y0.3Ba0.7Cu1O3-X,Y0.3Ba0.7Cu1O3,"{'Ba': 0.7000000000000001, 'Cu': 1.0, 'O': 3.0, 'Y': 0.30000000000000004}",95.5,95.5,0.0,1,Y0.3 Ba0.7 Cu1 O3
3129,[25168],Sr0.3Ba0.7Ni2P2,Sr0.3Ba0.7Ni2P2,"{'Ba': 0.7000000000000001, 'Ni': 2.0, 'P': 2.0, 'Sr': 0.30000000000000004}",2.55,2.55,0.0,1,Sr0.3 Ba0.7 Ni2 P2
3130,[23604],Ba0.7Rb0.3Ti2Sb2O1,Ba0.7Rb0.3Ti2Sb2O1,"{'Ba': 0.7000000000000001, 'O': 1.0, 'Rb': 0.30000000000000004, 'Sb': 2.0, 'Ti': 2.0}",5.93,5.93,0.0,1,Ba0.7 Rb0.3 Ti2 Sb2 O1
3131,[6915],Y1Ba0.74Sr1.26Cu3O6.98,Y1Ba0.74Sr1.26Cu3O6.98,"{'Ba': 0.74, 'Cu': 3.0, 'O': 6.98, 'Sr': 1.26, 'Y': 1.0}",80.5,80.5,0.0,1,Y1 Ba0.74 Sr1.26 Cu3 O6.98
3132,[115],Sm0.25Ba0.75Cu1O3-Y,Sm0.25Ba0.75Cu1O3,"{'Ba': 0.75, 'Cu': 1.0, 'O': 3.0, 'Sm': 0.25}",73.6,73.6,0.0,1,Sm0.25 Ba0.75 Cu1 O3
3133,[9000],Y1Ba0.75Sr1.25Cu3O6.91,Y1Ba0.75Sr1.25Cu3O6.91,"{'Ba': 0.75, 'Cu': 3.0, 'O': 6.91, 'Sr': 1.25, 'Y': 1.0}",80.0,80.0,0.0,1,Y1 Ba0.75 Sr1.25 Cu3 O6.91
3134,[4653],Y0.4Pr0.6Ba0.75Sr1.25Cu3O6.92,Y0.4Pr0.6Ba0.75Sr1.25Cu3O6.92,"{'Ba': 0.75, 'Cu': 3.0, 'O': 6.92, 'Pr': 0.6000000000000001, 'Sr': 1.25, 'Y': 0.4}",23.0,23.0,0.0,1,Y0.4 Pr0.6 Ba0.75 Sr1.25 Cu3 O6.92
3135,[9001],Y1Ba0.75Sr1.25Cu3O6.94,Y1Ba0.75Sr1.25Cu3O6.94,"{'Ba': 0.75, 'Cu': 3.0, 'O': 6.94, 'Sr': 1.25, 'Y': 1.0}",74.0,74.0,0.0,1,Y1 Ba0.75 Sr1.25 Cu3 O6.94
3136,"[23411, 23476]",Ba0.75Na0.25Ti2Sb2O1,Ba0.75Na0.25Ti2Sb2O1,"{'Ba': 0.75, 'Na': 0.25, 'O': 1.0, 'Sb': 2.0, 'Ti': 2.0}",5.53,5.015,0.515,2,Ba0.75 Na0.25 Ti2 Sb2 O1
3137,[6199],Ba0.76K0.24Bi1O3+Z,Ba0.76K0.24Bi1O3,"{'Ba': 0.76, 'Bi': 1.0, 'K': 0.24, 'O': 3.0}",28.0,28.0,0.0,1,Ba0.76 K0.24 Bi1 O3
3138,[951],Ba0.77K0.23Bi1O3,Ba0.77K0.23Bi1O3,"{'Ba': 0.77, 'Bi': 1.0, 'K': 0.23, 'O': 3.0}",28.0,28.0,0.0,1,Ba0.77 K0.23 Bi1 O3
3139,[2611],Ba0.8K0.2Bi0.3Pb0.7O3,Ba0.8K0.2Bi0.3Pb0.7O3,"{'Ba': 0.8, 'Bi': 0.30000000000000004, 'K': 0.2, 'O': 3.0, 'Pb': 0.7000000000000001}",7.2,7.2,0.0,1,Ba0.8 K0.2 Bi0.3 Pb0.7 O3
3140,[4618],Yb0.8Ca0.2Ba0.8Sr0.4Cu3O6.85,Yb0.8Ca0.2Ba0.8Sr0.4Cu3O6.85,"{'Ba': 0.8, 'Ca': 0.2, 'Cu': 3.0, 'O': 6.85, 'Sr': 0.4, 'Yb': 0.8}",35.0,35.0,0.0,1,Yb0.8 Ca0.2 Ba0.8 Sr0.4 Cu3 O6.85
3141,[6637],La1Ba0.8Ca1.2Cu3O7.11,La1Ba0.8Ca1.2Cu3O7.11,"{'Ba': 0.8, 'Ca': 1.2, 'Cu': 3.0, 'La': 1.0, 'O': 7.11}",60.0,60.0,0.0,1,La1 Ba0.8 Ca1.2 Cu3 O7.11
3142,"[4274, 4275, 4276]",Tl1Ba0.8Sr1.2Ca2Cu3O9-z,Tl1Ba0.8Sr1.2Ca2Cu3O9,"{'Ba': 0.8, 'Ca': 2.0, 'Cu': 3.0, 'O': 9.0, 'Sr': 1.2, 'Tl': 1.0}",115.0,102.6666666667,8.8065632091,3,Tl1 Ba0.8 Sr1.2 Ca2 Cu3 O9