,sc_id,supercon_formula,cleaned_formula,material_dict,highest_Tc,average_Tc,std_Tc,entry_count,composition
4850,[1630],Y1Ba2Cu2.94Cr0.06O7-Z,Y1Ba2Cu2.94Cr0.06O7,"{'Ba': 2.0, 'Cr': 0.06, 'Cu': 2.94, 'O': 7.0, 'Y': 1.0}",84.0,84.0,0.0,1,Y1 Ba2 Cu2.94 Cr0.06 O7
4851,[4089],Y1Ba2Cu2.8Cr0.2O7,Y1Ba2Cu2.8Cr0.2O7,"{'Ba': 2.0, 'Cr': 0.2, 'Cu': 2.8, 'O': 7.0, 'Y': 1.0}",87.5,87.5,0.0,1,Y1 Ba2 Cu2.8 Cr0.2 O7
4852,[4094],Hg0.6Cr0.4Ba2Cu1O4.1,Hg0.6Cr0.4Ba2Cu1O4.1,"{'Ba': 2.0, 'Cr': 0.4, 'Cu': 1.0, 'Hg': 0.6000000000000001, 'O': 4.1}",70.0,70.0,0.0,1,Hg0.6 Cr0.4 Ba2 Cu1 O4.1
4853,[3964],Y0.95Cs0.05Ba2Cu3O6.61,Y0.95Cs0.05Ba2Cu3O6.61,"{'Ba': 2.0, 'Cs': 0.05, 'Cu': 3.0, 'O': 6.61, 'Y': 0.9500000000000001}",92.45,92.45,0.0,1,Y0.95 Cs0.05 Ba2 Cu3 O6.61
4854,[3965],Y0.9Cs0.1Ba2Cu3O6.47,Y0.9Cs0.1Ba2Cu3O6.47,"{'Ba': 2.0, 'Cs': 0.1, 'Cu': 3.0, 'O': 6.47, 'Y': 0.9}",91.3,91.3,0.0,1,Y0.9 Cs0.1 Ba2 Cu3 O6.47
4855,[3966],Y0.85Cs0.15Ba2Cu3O6.5,Y0.85Cs0.15Ba2Cu3O6.5,"{'Ba': 2.0, 'Cs': 0.15, 'Cu': 3.0, 'O': 6.5, 'Y': 0.85}",90.4,90.4,0.0,1,Y0.85 Cs0.15 Ba2 Cu3 O6.5
4856,[7248],Ba2Y1Ru0.9Cu0.1O6-z,Ba2Y1Ru0.9Cu0.1O6,"{'Ba': 2.0, 'Cu': 0.1, 'O': 6.0, 'Ru': 0.9, 'Y': 1.0}",65.0,65.0,0.0,1,Ba2 Y1 Ru0.9 Cu0.1 O6
4857,[7704],Y1Ba2Cu0.95Zn0.05O7.95,Y1Ba2Cu0.95Zn0.05O7.95,"{'Ba': 2.0, 'Cu': 0.9500000000000001, 'O': 7.95, 'Y': 1.0, 'Zn': 0.05}",46.0,46.0,0.0,1,Y1 Ba2 Cu0.95 Zn0.05 O7.95
4858,[9996],Hg1Ba2Cu0.97Fe0.03O4+z,Hg1Ba2Cu0.97Fe0.03O4,"{'Ba': 2.0, 'Cu': 0.97, 'Fe': 0.03, 'Hg': 1.0, 'O': 4.0}",95.0,95.0,0.0,1,Hg1 Ba2 Cu0.97 Fe0.03 O4
4859,[9990],Hg1Ba2Cu0.97Mg0.03O4+z,Hg1Ba2Cu0.97Mg0.03O4,"{'Ba': 2.0, 'Cu': 0.97, 'Hg': 1.0, 'Mg': 0.03, 'O': 4.0}",85.0,85.0,0.0,1,Hg1 Ba2 Cu0.97 Mg0.03 O4
4860,[10002],Hg1Ba2Cu0.97Ni0.03O4+z,Hg1Ba2Cu0.97Ni0.03O4,"{'Ba': 2.0, 'Cu': 0.97, 'Hg': 1.0, 'Ni': 0.03, 'O': 4.0}",95.0,95.0,0.0,1,Hg1 Ba2 Cu0.97 Ni0.03 O4
4861,[9993],Hg1Ba2Cu0.97Zn0.03O4+z,Hg1Ba2Cu0.97Zn0.03O4,"{'Ba': 2.0, 'Cu': 0.97, 'Hg': 1.0, 'O': 4.0, 'Zn': 0.03}",78.0,78.0,0.0,1,Hg1 Ba2 Cu0.97 Zn0.03 O4
4862,[10222],Hg1Ba2Cu0.97Zn0.03O4.027,Hg1Ba2Cu0.97Zn0.03O4.027,"{'Ba': 2.0, 'Cu': 0.97, 'Hg': 1.0, 'O': 4.027, 'Zn': 0.03}",28.0,28.0,0.0,1,Hg1 Ba2 Cu0.97 Zn0.03 O4.027
4863,[10223],Hg1Ba2Cu0.97Zn0.03O4.043,Hg1Ba2Cu0.97Zn0.03O4.043,"{'Ba': 2.0, 'Cu': 0.97, 'Hg': 1.0, 'O': 4.043, 'Zn': 0.03}",53.0,53.0,0.0,1,Hg1 Ba2 Cu0.97 Zn0.03 O4.043
4864,[10224],Hg1Ba2Cu0.97Zn0.03O4.052,Hg1Ba2Cu0.97Zn0.03O4.052,"{'Ba': 2.0, 'Cu': 0.97, 'Hg': 1.0, 'O': 4.052, 'Zn': 0.03}",69.0,69.0,0.0,1,Hg1 Ba2 Cu0.97 Zn0.03 O4.052
4865,[10225],Hg1Ba2Cu0.97Zn0.03O4.063,Hg1Ba2Cu0.97Zn0.03O4.063,"{'Ba': 2.0, 'Cu': 0.97, 'Hg': 1.0, 'O': 4.063, 'Zn': 0.03}",75.0,75.0,0.0,1,Hg1 Ba2 Cu0.97 Zn0.03 O4.063
4866,[10226],Hg1Ba2Cu0.97Zn0.03O4.073,Hg1Ba2Cu0.97Zn0.03O4.073,"{'Ba': 2.0, 'Cu': 0.97, 'Hg': 1.0, 'O': 4.073, 'Zn': 0.03}",82.0,82.0,0.0,1,Hg1 Ba2 Cu0.97 Zn0.03 O4.073
4867,[10227],Hg1Ba2Cu0.97Zn0.03O4.081,Hg1Ba2Cu0.97Zn0.03O4.081,"{'Ba': 2.0, 'Cu': 0.97, 'Hg': 1.0, 'O': 4.081, 'Zn': 0.03}",83.0,83.0,0.0,1,Hg1 Ba2 Cu0.97 Zn0.03 O4.081
4868,[7705],Y1Ba2Cu0.97Zn0.03O7.95,Y1Ba2Cu0.97Zn0.03O7.95,"{'Ba': 2.0, 'Cu': 0.97, 'O': 7.95, 'Y': 1.0, 'Zn': 0.03}",59.0,59.0,0.0,1,Y1 Ba2 Cu0.97 Zn0.03 O7.95
4869,[9995],Hg1Ba2Cu0.98Fe0.02O4+z,Hg1Ba2Cu0.98Fe0.02O4,"{'Ba': 2.0, 'Cu': 0.98, 'Fe': 0.02, 'Hg': 1.0, 'O': 4.0}",96.0,96.0,0.0,1,Hg1 Ba2 Cu0.98 Fe0.02 O4
4870,[9989],Hg1Ba2Cu0.98Mg0.02O4+z,Hg1Ba2Cu0.98Mg0.02O4,"{'Ba': 2.0, 'Cu': 0.98, 'Hg': 1.0, 'Mg': 0.02, 'O': 4.0}",89.0,89.0,0.0,1,Hg1 Ba2 Cu0.98 Mg0.02 O4
4871,[10001],Hg1Ba2Cu0.98Ni0.02O4+z,Hg1Ba2Cu0.98Ni0.02O4,"{'Ba': 2.0, 'Cu': 0.98, 'Hg': 1.0, 'Ni': 0.02, 'O': 4.0}",94.0,94.0,0.0,1,Hg1 Ba2 Cu0.98 Ni0.02 O4
4872,[9992],Hg1Ba2Cu0.98Zn0.02O4+z,Hg1Ba2Cu0.98Zn0.02O4,"{'Ba': 2.0, 'Cu': 0.98, 'Hg': 1.0, 'O': 4.0, 'Zn': 0.02}",85.0,85.0,0.0,1,Hg1 Ba2 Cu0.98 Zn0.02 O4
4873,[9994],Hg1Ba2Cu0.99Fe0.01O4+z,Hg1Ba2Cu0.99Fe0.01O4,"{'Ba': 2.0, 'Cu': 0.99, 'Fe': 0.01, 'Hg': 1.0, 'O': 4.0}",96.0,96.0,0.0,1,Hg1 Ba2 Cu0.99 Fe0.01 O4
4874,[9988],Hg1Ba2Cu0.99Mg0.01O4+z,Hg1Ba2Cu0.99Mg0.01O4,"{'Ba': 2.0, 'Cu': 0.99, 'Hg': 1.0, 'Mg': 0.01, 'O': 4.0}",94.0,94.0,0.0,1,Hg1 Ba2 Cu0.99 Mg0.01 O4
4875,[10000],Hg1Ba2Cu0.99Ni0.01O4+z,Hg1Ba2Cu0.99Ni0.01O4,"{'Ba': 2.0, 'Cu': 0.99, 'Hg': 1.0, 'Ni': 0.01, 'O': 4.0}",96.0,96.0,0.0,1,Hg1 Ba2 Cu0.99 Ni0.01 O4
4876,[9991],Hg1Ba2Cu0.99Zn0.01O4+z,Hg1Ba2Cu0.99Zn0.01O4,"{'Ba': 2.0, 'Cu': 0.99, 'Hg': 1.0, 'O': 4.0, 'Zn': 0.01}",89.0,89.0,0.0,1,Hg1 Ba2 Cu0.99 Zn0.01 O4
4877,"[5862, 5863, 9361, 9362, 9363, 9364, 9365, 9366]",Hg1Ba2Cu1FO4+z,Hg1Ba2Cu1FO4,"{'Ba': 2.0, 'Cu': 1.0, 'F': 1.0, 'Hg': 1.0, 'O': 4.0}",97.0,92.5,6.4226162893,8,Hg1 Ba2 Cu1 F1 O4
4878,[5513],Hg0.7V0.3Ba2Cu1O3.4+z,Hg0.7V0.3Ba2Cu1O3.4,"{'Ba': 2.0, 'Cu': 1.0, 'Hg': 0.7000000000000001, 'O': 3.4, 'V': 0.30000000000000004}",70.0,70.0,0.0,1,Hg0.7 V0.3 Ba2 Cu1 O3.4
4879,[5518],Hg0.7V0.3Ba2Cu1O4.6+z,Hg0.7V0.3Ba2Cu1O4.6,"{'Ba': 2.0, 'Cu': 1.0, 'Hg': 0.7000000000000001, 'O': 4.6, 'V': 0.30000000000000004}",95.0,95.0,0.0,1,Hg0.7 V0.3 Ba2 Cu1 O4.6
4880,[6709],Hg0.75Mo0.25Ba2Cu1O4.51,Hg0.75Mo0.25Ba2Cu1O4.51,"{'Ba': 2.0, 'Cu': 1.0, 'Hg': 0.75, 'Mo': 0.25, 'O': 4.51}",40.0,40.0,0.0,1,Hg0.75 Mo0.25 Ba2 Cu1 O4.51
4881,[6708],Hg0.75Mo0.25Ba2Cu1O4.59,Hg0.75Mo0.25Ba2Cu1O4.59,"{'Ba': 2.0, 'Cu': 1.0, 'Hg': 0.75, 'Mo': 0.25, 'O': 4.59}",12.0,12.0,0.0,1,Hg0.75 Mo0.25 Ba2 Cu1 O4.59
4882,[9274],Hg0.8Mn0.2Ba2Cu1O4.2,Hg0.8Mn0.2Ba2Cu1O4.2,"{'Ba': 2.0, 'Cu': 1.0, 'Hg': 0.8, 'Mn': 0.2, 'O': 4.2}",91.0,91.0,0.0,1,Hg0.8 Mn0.2 Ba2 Cu1 O4.2
4883,[4095],Hg0.8Mo0.2Ba2Cu1O4.4,Hg0.8Mo0.2Ba2Cu1O4.4,"{'Ba': 2.0, 'Cu': 1.0, 'Hg': 0.8, 'Mo': 0.2, 'O': 4.4}",74.0,74.0,0.0,1,Hg0.8 Mo0.2 Ba2 Cu1 O4.4
4884,[9275],Hg0.8Nd0.2Ba2Cu1O4.3,Hg0.8Nd0.2Ba2Cu1O4.3,"{'Ba': 2.0, 'Cu': 1.0, 'Hg': 0.8, 'Nd': 0.2, 'O': 4.3}",77.0,77.0,0.0,1,Hg0.8 Nd0.2 Ba2 Cu1 O4.3
4885,[8737],Hg0.8Ba2Cu1O4+y,Hg0.8Ba2Cu1O4,"{'Ba': 2.0, 'Cu': 1.0, 'Hg': 0.8, 'O': 4.0}",94.5,94.5,0.0,1,Hg0.8 Ba2 Cu1 O4
4886,[3463],Hg0.8Pb0.2Ba2Cu1O4+z,Hg0.8Pb0.2Ba2Cu1O4,"{'Ba': 2.0, 'Cu': 1.0, 'Hg': 0.8, 'O': 4.0, 'Pb': 0.2}",96.0,96.0,0.0,1,Hg0.8 Pb0.2 Ba2 Cu1 O4
4887,"[4069, 4099]",Hg0.8V0.2Ba2Cu1O4.3,Hg0.8V0.2Ba2Cu1O4.3,"{'Ba': 2.0, 'Cu': 1.0, 'Hg': 0.8, 'O': 4.3, 'V': 0.2}",96.0,93.0,3.0,2,Hg0.8 V0.2 Ba2 Cu1 O4.3
4888,[4097],Hg0.8W0.2Ba2Cu1O4.4,Hg0.8W0.2Ba2Cu1O4.4,"{'Ba': 2.0, 'Cu': 1.0, 'Hg': 0.8, 'O': 4.4, 'W': 0.2}",45.0,45.0,0.0,1,Hg0.8 W0.2 Ba2 Cu1 O4.4
4889,[8733],Hg0.85Ba2Cu1O4+y,Hg0.85Ba2Cu1O4,"{'Ba': 2.0, 'Cu': 1.0, 'Hg': 0.85, 'O': 4.0}",93.0,93.0,0.0,1,Hg0.85 Ba2 Cu1 O4
4890,[9730],Hg0.85Re0.15Ba2Cu1O4.49,Hg0.85Re0.15Ba2Cu1O4.49,"{'Ba': 2.0, 'Cu': 1.0, 'Hg': 0.85, 'O': 4.49, 'Re': 0.15}",93.7,93.7,0.0,1,Hg0.85 Re0.15 Ba2 Cu1 O4.49
4891,[9731],Hg0.85Re0.15Ba2Cu1O4.52,Hg0.85Re0.15Ba2Cu1O4.52,"{'Ba': 2.0, 'Cu': 1.0, 'Hg': 0.85, 'O': 4.52, 'Re': 0.15}",94.8,94.8,0.0,1,Hg0.85 Re0.15 Ba2 Cu1 O4.52
4892,[7173],Hg0.85Re0.15Ba2Cu1O4.525,Hg0.85Re0.15Ba2Cu1O4.525,"{'Ba': 2.0, 'Cu': 1.0, 'Hg': 0.85, 'O': 4.525, 'Re': 0.15}",96.3,96.3,0.0,1,Hg0.85 Re0.15 Ba2 Cu1 O4.525
4893,[9734],Hg0.85Re0.15Ba2Cu1O4.53,Hg0.85Re0.15Ba2Cu1O4.53,"{'Ba': 2.0, 'Cu': 1.0, 'Hg': 0.85, 'O': 4.53, 'Re': 0.15}",96.3,96.3,0.0,1,Hg0.85 Re0.15 Ba2 Cu1 O4.53
4894,[9732],Hg0.85Re0.15Ba2Cu1O4.55,Hg0.85Re0.15Ba2Cu1O4.55,"{'Ba': 2.0, 'Cu': 1.0, 'Hg': 0.85, 'O': 4.55, 'Re': 0.15}",93.7,93.7,0.0,1,Hg0.85 Re0.15 Ba2 Cu1 O4.55
4895,"[7169, 9733]",Hg0.85Re0.15Ba2Cu1O4.58,Hg0.85Re0.15Ba2Cu1O4.58,"{'Ba': 2.0, 'Cu': 1.0, 'Hg': 0.85, 'O': 4.58, 'Re': 0.15}",35.0,34.85,0.15,2,Hg0.85 Re0.15 Ba2 Cu1 O4.58
4896,[4096],Hg0.9Mo0.1Ba2Cu1O4.2,Hg0.9Mo0.1Ba2Cu1O4.2,"{'Ba': 2.0, 'Cu': 1.0, 'Hg': 0.9, 'Mo': 0.1, 'O': 4.2}",75.0,75.0,0.0,1,Hg0.9 Mo0.1 Ba2 Cu1 O4.2
4897,"[4098, 4126, 8730]",Hg0.9Ba2Cu1O4+z,Hg0.9Ba2Cu1O4,"{'Ba': 2.0, 'Cu': 1.0, 'Hg': 0.9, 'O': 4.0}",96.0,86.6666666667,9.8770215934,3,Hg0.9 Ba2 Cu1 O4
4898,[4093],Hg0.9W0.1Ba2Cu1O4.2,Hg0.9W0.1Ba2Cu1O4.2,"{'Ba': 2.0, 'Cu': 1.0, 'Hg': 0.9, 'O': 4.2, 'W': 0.1}",89.0,89.0,0.0,1,Hg0.9 W0.1 Ba2 Cu1 O4.2
4899,[9726],Hg0.9Re0.1Ba2Cu1O4.33,Hg0.9Re0.1Ba2Cu1O4.33,"{'Ba': 2.0, 'Cu': 1.0, 'Hg': 0.9, 'O': 4.33, 'Re': 0.1}",87.2,87.2,0.0,1,Hg0.9 Re0.1 Ba2 Cu1 O4.33
4900,[9727],Hg0.9Re0.1Ba2Cu1O4.35,Hg0.9Re0.1Ba2Cu1O4.35,"{'Ba': 2.0, 'Cu': 1.0, 'Hg': 0.9, 'O': 4.35, 'Re': 0.1}",90.5,90.5,0.0,1,Hg0.9 Re0.1 Ba2 Cu1 O4.35
4901,[9728],Hg0.9Re0.1Ba2Cu1O4.41,Hg0.9Re0.1Ba2Cu1O4.41,"{'Ba': 2.0, 'Cu': 1.0, 'Hg': 0.9, 'O': 4.41, 'Re': 0.1}",94.5,94.5,0.0,1,Hg0.9 Re0.1 Ba2 Cu1 O4.41
4902,"[7168, 9729]",Hg0.9Re0.1Ba2Cu1O4.42,Hg0.9Re0.1Ba2Cu1O4.42,"{'Ba': 2.0, 'Cu': 1.0, 'Hg': 0.9, 'O': 4.42, 'Re': 0.1}",95.0,94.4,0.6000000000000001,2,Hg0.9 Re0.1 Ba2 Cu1 O4.42
4903,[7172],Hg0.9Re0.1Ba2Cu1O4.425,Hg0.9Re0.1Ba2Cu1O4.425,"{'Ba': 2.0, 'Cu': 1.0, 'Hg': 0.9, 'O': 4.425, 'Re': 0.1}",96.8,96.8,0.0,1,Hg0.9 Re0.1 Ba2 Cu1 O4.425
4904,[8728],Hg0.95Ba2Cu1O4+y,Hg0.95Ba2Cu1O4,"{'Ba': 2.0, 'Cu': 1.0, 'Hg': 0.9500000000000001, 'O': 4.0}",89.5,89.5,0.0,1,Hg0.95 Ba2 Cu1 O4
4905,[7167],Hg0.95Re0.05Ba2Cu1O4.37,Hg0.95Re0.05Ba2Cu1O4.37,"{'Ba': 2.0, 'Cu': 1.0, 'Hg': 0.9500000000000001, 'O': 4.37, 'Re': 0.05}",96.0,96.0,0.0,1,Hg0.95 Re0.05 Ba2 Cu1 O4.37
4906,[7171],Hg0.95Re0.05Ba2Cu1O4.372,Hg0.95Re0.05Ba2Cu1O4.372,"{'Ba': 2.0, 'Cu': 1.0, 'Hg': 0.9500000000000001, 'O': 4.372, 'Re': 0.05}",97.0,97.0,0.0,1,Hg0.95 Re0.05 Ba2 Cu1 O4.372
4907,"[3150, 3402, 3403, 3406, 3439, 3462, 3906, 4053, 4054, 4125, 4280, 4482, 4506, 4507, 4509, 4510, 5096, 5417, 5858, 5859, 6794, 7117, 7118, 7566, 7653, 7766, 8343, 8344, 8680, 8727, 8796, 8942, 9465, 9678, 9679, 9680, 9681, 9682, 9826, 9827, 9828, 9829, 9830, 9831, 9987, 10181, 12153, 12154, 12155, 12156, 12157, 12158, 12159, 12160, 12161, 12162, 12163, 12164]",Hg1Ba2Cu1O4+Z,Hg1Ba2Cu1O4,"{'Ba': 2.0, 'Cu': 1.0, 'Hg': 1.0, 'O': 4.0}",98.0,84.674137931,16.735442056,58,Hg1 Ba2 Cu1 O4
4908,"[4505, 7116, 9360]",Hg1Ba2Cu1O4.01,Hg1Ba2Cu1O4.01,"{'Ba': 2.0, 'Cu': 1.0, 'Hg': 1.0, 'O': 4.01}",68.0,63.3333333333,3.2998316455,3,Hg1 Ba2 Cu1 O4.01
4909,[6782],Hg1Ba2Cu1O4.02,Hg1Ba2Cu1O4.02,"{'Ba': 2.0, 'Cu': 1.0, 'Hg': 1.0, 'O': 4.02}",72.0,72.0,0.0,1,Hg1 Ba2 Cu1 O4.02
4910,[5176],Hg1Ba2Cu1O4.025,Hg1Ba2Cu1O4.025,"{'Ba': 2.0, 'Cu': 1.0, 'Hg': 1.0, 'O': 4.025}",20.0,20.0,0.0,1,Hg1 Ba2 Cu1 O4.025
4911,"[4823, 7866]",Hg1Ba2Cu1O4.03,Hg1Ba2Cu1O4.03,"{'Ba': 2.0, 'Cu': 1.0, 'Hg': 1.0, 'O': 4.03}",49.9,25.45,24.45,2,Hg1 Ba2 Cu1 O4.03
4912,[10215],Hg1Ba2Cu1O4.032,Hg1Ba2Cu1O4.032,"{'Ba': 2.0, 'Cu': 1.0, 'Hg': 1.0, 'O': 4.032}",36.0,36.0,0.0,1,Hg1 Ba2 Cu1 O4.032
4913,[10216],Hg1Ba2Cu1O4.033,Hg1Ba2Cu1O4.033,"{'Ba': 2.0, 'Cu': 1.0, 'Hg': 1.0, 'O': 4.033}",48.0,48.0,0.0,1,Hg1 Ba2 Cu1 O4.033
4914,"[4060, 10217]",Hg1Ba2Cu1O4.043,Hg1Ba2Cu1O4.043,"{'Ba': 2.0, 'Cu': 1.0, 'Hg': 1.0, 'O': 4.043}",87.0,79.5,7.5,2,Hg1 Ba2 Cu1 O4.043
4915,[5177],Hg1Ba2Cu1O4.045,Hg1Ba2Cu1O4.045,"{'Ba': 2.0, 'Cu': 1.0, 'Hg': 1.0, 'O': 4.045}",73.0,73.0,0.0,1,Hg1 Ba2 Cu1 O4.045
4916,[10220],Hg1Ba2Cu1O4.047,Hg1Ba2Cu1O4.047,"{'Ba': 2.0, 'Cu': 1.0, 'Hg': 1.0, 'O': 4.047}",95.0,95.0,0.0,1,Hg1 Ba2 Cu1 O4.047
4917,[6153],Hg1Ba2Cu1O4.049,Hg1Ba2Cu1O4.049,"{'Ba': 2.0, 'Cu': 1.0, 'Hg': 1.0, 'O': 4.049}",70.0,70.0,0.0,1,Hg1 Ba2 Cu1 O4.049
4918,[9722],Hg1Ba2Cu1O4.05,Hg1Ba2Cu1O4.05,"{'Ba': 2.0, 'Cu': 1.0, 'Hg': 1.0, 'O': 4.05}",73.5,73.5,0.0,1,Hg1 Ba2 Cu1 O4.05
4919,[10218],Hg1Ba2Cu1O4.052,Hg1Ba2Cu1O4.052,"{'Ba': 2.0, 'Cu': 1.0, 'Hg': 1.0, 'O': 4.052}",82.0,82.0,0.0,1,Hg1 Ba2 Cu1 O4.052
4920,"[5178, 6154]",Hg1Ba2Cu1O4.055,Hg1Ba2Cu1O4.055,"{'Ba': 2.0, 'Cu': 1.0, 'Hg': 1.0, 'O': 4.055}",80.0,79.1,0.9,2,Hg1 Ba2 Cu1 O4.055
4921,[10219],Hg1Ba2Cu1O4.058,Hg1Ba2Cu1O4.058,"{'Ba': 2.0, 'Cu': 1.0, 'Hg': 1.0, 'O': 4.058}",89.0,89.0,0.0,1,Hg1 Ba2 Cu1 O4.058
4922,"[8677, 9070]",Hg1Ba2Cu1O4.06,Hg1Ba2Cu1O4.06,"{'Ba': 2.0, 'Cu': 1.0, 'Hg': 1.0, 'O': 4.06}",75.0,73.0,2.0,2,Hg1 Ba2 Cu1 O4.06
4923,[6155],Hg1Ba2Cu1O4.066,Hg1Ba2Cu1O4.066,"{'Ba': 2.0, 'Cu': 1.0, 'Hg': 1.0, 'O': 4.066}",88.5,88.5,0.0,1,Hg1 Ba2 Cu1 O4.066
4924,"[4057, 8178]",Hg1Ba2Cu1O4.07,Hg1Ba2Cu1O4.07,"{'Ba': 2.0, 'Cu': 1.0, 'Hg': 1.0, 'O': 4.07}",91.0,68.0,23.0,2,Hg1 Ba2 Cu1 O4.07
4925,"[4504, 5179, 6147, 6783, 8149]",Hg1Ba2Cu1O4.08,Hg1Ba2Cu1O4.08,"{'Ba': 2.0, 'Cu': 1.0, 'Hg': 1.0, 'O': 4.08}",96.0,84.8,16.4121905911,5,Hg1 Ba2 Cu1 O4.08
4926,[10221],Hg1Ba2Cu1O4.081,Hg1Ba2Cu1O4.081,"{'Ba': 2.0, 'Cu': 1.0, 'Hg': 1.0, 'O': 4.081}",98.0,98.0,0.0,1,Hg1 Ba2 Cu1 O4.081
4927,[5180],Hg1Ba2Cu1O4.085,Hg1Ba2Cu1O4.085,"{'Ba': 2.0, 'Cu': 1.0, 'Hg': 1.0, 'O': 4.085}",92.0,92.0,0.0,1,Hg1 Ba2 Cu1 O4.085
4928,"[4056, 4059, 5181, 7299, 7867]",Hg1Ba2Cu1O4.09,Hg1Ba2Cu1O4.09,"{'Ba': 2.0, 'Cu': 1.0, 'Hg': 1.0, 'O': 4.09}",98.0,75.4,26.8298341404,5,Hg1 Ba2 Cu1 O4.09
4929,[6156],Hg1Ba2Cu1O4.096,Hg1Ba2Cu1O4.096,"{'Ba': 2.0, 'Cu': 1.0, 'Hg': 1.0, 'O': 4.096}",95.6,95.6,0.0,1,Hg1 Ba2 Cu1 O4.096
4930,[6157],Hg1Ba2Cu1O4.097,Hg1Ba2Cu1O4.097,"{'Ba': 2.0, 'Cu': 1.0, 'Hg': 1.0, 'O': 4.097}",95.3,95.3,0.0,1,Hg1 Ba2 Cu1 O4.097
4931,"[4055, 5182, 6158, 9580, 10179]",Hg1Ba2Cu1O4.1,Hg1Ba2Cu1O4.1,"{'Ba': 2.0, 'Cu': 1.0, 'Hg': 1.0, 'O': 4.1}",94.1,68.22,22.2439564826,5,Hg1 Ba2 Cu1 O4.1
4932,[6159],Hg1Ba2Cu1O4.101,Hg1Ba2Cu1O4.101,"{'Ba': 2.0, 'Cu': 1.0, 'Hg': 1.0, 'O': 4.101}",93.4,93.4,0.0,1,Hg1 Ba2 Cu1 O4.101
4933,[6160],Hg1Ba2Cu1O4.103,Hg1Ba2Cu1O4.103,"{'Ba': 2.0, 'Cu': 1.0, 'Hg': 1.0, 'O': 4.103}",92.5,92.5,0.0,1,Hg1 Ba2 Cu1 O4.103
4934,[6161],Hg1Ba2Cu1O4.105,Hg1Ba2Cu1O4.105,"{'Ba': 2.0, 'Cu': 1.0, 'Hg': 1.0, 'O': 4.105}",90.9,90.9,0.0,1,Hg1 Ba2 Cu1 O4.105
4935,[6162],Hg1Ba2Cu1O4.108,Hg1Ba2Cu1O4.108,"{'Ba': 2.0, 'Cu': 1.0, 'Hg': 1.0, 'O': 4.108}",89.1,89.1,0.0,1,Hg1 Ba2 Cu1 O4.108
4936,[4058],Hg1Ba2Cu1O4.117,Hg1Ba2Cu1O4.117,"{'Ba': 2.0, 'Cu': 1.0, 'Hg': 1.0, 'O': 4.117}",82.0,82.0,0.0,1,Hg1 Ba2 Cu1 O4.117
4937,"[4508, 5183, 8179, 8679]",Hg1Ba2Cu1O4.12,Hg1Ba2Cu1O4.12,"{'Ba': 2.0, 'Cu': 1.0, 'Hg': 1.0, 'O': 4.12}",98.0,83.0,11.0227038425,4,Hg1 Ba2 Cu1 O4.12
4938,"[5184, 9071]",Hg1Ba2Cu1O4.13,Hg1Ba2Cu1O4.13,"{'Ba': 2.0, 'Cu': 1.0, 'Hg': 1.0, 'O': 4.13}",97.0,78.5,18.5,2,Hg1 Ba2 Cu1 O4.13
4939,"[7166, 9723]",Hg1Ba2Cu1O4.15,Hg1Ba2Cu1O4.15,"{'Ba': 2.0, 'Cu': 1.0, 'Hg': 1.0, 'O': 4.15}",97.2,97.0,0.2,2,Hg1 Ba2 Cu1 O4.15
4940,[8539],Hg1Ba2Cu1O4.16,Hg1Ba2Cu1O4.16,"{'Ba': 2.0, 'Cu': 1.0, 'Hg': 1.0, 'O': 4.16}",88.0,88.0,0.0,1,Hg1 Ba2 Cu1 O4.16
4941,[7170],Hg1Ba2Cu1O4.162,Hg1Ba2Cu1O4.162,"{'Ba': 2.0, 'Cu': 1.0, 'Hg': 1.0, 'O': 4.162}",97.4,97.4,0.0,1,Hg1 Ba2 Cu1 O4.162
4942,[7868],Hg1Ba2Cu1O4.17,Hg1Ba2Cu1O4.17,"{'Ba': 2.0, 'Cu': 1.0, 'Hg': 1.0, 'O': 4.17}",78.0,78.0,0.0,1,Hg1 Ba2 Cu1 O4.17
4943,"[4824, 7869, 8148, 8150, 9724]",Hg1Ba2Cu1O4.18,Hg1Ba2Cu1O4.18,"{'Ba': 2.0, 'Cu': 1.0, 'Hg': 1.0, 'O': 4.18}",97.0,95.16,1.4609585894000001,5,Hg1 Ba2 Cu1 O4.18
4944,"[8180, 8678, 9072]",Hg1Ba2Cu1O4.19,Hg1Ba2Cu1O4.19,"{'Ba': 2.0, 'Cu': 1.0, 'Hg': 1.0, 'O': 4.19}",95.0,82.6666666667,10.2089285541,3,Hg1 Ba2 Cu1 O4.19
4945,[9725],Hg1Ba2Cu1O4.2,Hg1Ba2Cu1O4.2,"{'Ba': 2.0, 'Cu': 1.0, 'Hg': 1.0, 'O': 4.2}",94.2,94.2,0.0,1,Hg1 Ba2 Cu1 O4.2
4946,[8152],Hg1Ba2Cu1O4.21,Hg1Ba2Cu1O4.21,"{'Ba': 2.0, 'Cu': 1.0, 'Hg': 1.0, 'O': 4.21}",80.0,80.0,0.0,1,Hg1 Ba2 Cu1 O4.21
4947,[8181],Hg1Ba2Cu1O4.22,Hg1Ba2Cu1O4.22,"{'Ba': 2.0, 'Cu': 1.0, 'Hg': 1.0, 'O': 4.22}",97.0,97.0,0.0,1,Hg1 Ba2 Cu1 O4.22
4948,"[8151, 8540]",Hg1Ba2Cu1O4.23,Hg1Ba2Cu1O4.23,"{'Ba': 2.0, 'Cu': 1.0, 'Hg': 1.0, 'O': 4.23}",97.0,63.5,33.5,2,Hg1 Ba2 Cu1 O4.23
4949,"[4825, 8182]",Hg1Ba2Cu1O4.27,Hg1Ba2Cu1O4.27,"{'Ba': 2.0, 'Cu': 1.0, 'Hg': 1.0, 'O': 4.27}",91.0,88.85,2.15,2,Hg1 Ba2 Cu1 O4.27
4950,"[7870, 7871, 8541]",Hg1Ba2Cu1O4.28,Hg1Ba2Cu1O4.28,"{'Ba': 2.0, 'Cu': 1.0, 'Hg': 1.0, 'O': 4.28}",88.0,85.0,3.559026084,3,Hg1 Ba2 Cu1 O4.28
4951,[8183],Hg1Ba2Cu1O4.3,Hg1Ba2Cu1O4.3,"{'Ba': 2.0, 'Cu': 1.0, 'Hg': 1.0, 'O': 4.3}",81.0,81.0,0.0,1,Hg1 Ba2 Cu1 O4.3
4952,[8184],Hg1Ba2Cu1O4.31,Hg1Ba2Cu1O4.31,"{'Ba': 2.0, 'Cu': 1.0, 'Hg': 1.0, 'O': 4.31}",78.0,78.0,0.0,1,Hg1 Ba2 Cu1 O4.31
4953,[8185],Hg1Ba2Cu1O4.34,Hg1Ba2Cu1O4.34,"{'Ba': 2.0, 'Cu': 1.0, 'Hg': 1.0, 'O': 4.34}",59.0,59.0,0.0,1,Hg1 Ba2 Cu1 O4.34
4954,"[4826, 7872, 8186]",Hg1Ba2Cu1O4.36,Hg1Ba2Cu1O4.36,"{'Ba': 2.0, 'Cu': 1.0, 'Hg': 1.0, 'O': 4.36}",56.0,45.3333333333,7.5424723327,3,Hg1 Ba2 Cu1 O4.36
4955,"[8187, 10180]",Hg1Ba2Cu1O4.37,Hg1Ba2Cu1O4.37,"{'Ba': 2.0, 'Cu': 1.0, 'Hg': 1.0, 'O': 4.37}",40.0,37.5,2.5,2,Hg1 Ba2 Cu1 O4.37
4956,"[4827, 7873, 8188]",Hg1Ba2Cu1O4.39,Hg1Ba2Cu1O4.39,"{'Ba': 2.0, 'Cu': 1.0, 'Hg': 1.0, 'O': 4.39}",26.0,24.2,1.6573070526,3,Hg1 Ba2 Cu1 O4.39
4957,[5185],Hg1Ba2Cu1O6.932,Hg1Ba2Cu1O6.932,"{'Ba': 2.0, 'Cu': 1.0, 'Hg': 1.0, 'O': 6.932}",50.0,50.0,0.0,1,Hg1 Ba2 Cu1 O6.932
4958,"[21951, 21952]",Ba2Cu1O4,Ba2Cu1O4,"{'Ba': 2.0, 'Cu': 1.0, 'O': 4.0}",53.5,48.0,5.5,2,Ba2 Cu1 O4
4959,"[2089, 2290]",Tl1Ba2Cu1O5,Tl1Ba2Cu1O5,"{'Ba': 2.0, 'Cu': 1.0, 'O': 5.0, 'Tl': 1.0}",95.0,55.0,40.0,2,Tl1 Ba2 Cu1 O5
4960,[1109],Tl2Ba2Cu1O5.876,Tl2Ba2Cu1O5.876,"{'Ba': 2.0, 'Cu': 1.0, 'O': 5.876, 'Tl': 2.0}",87.0,87.0,0.0,1,Tl2 Ba2 Cu1 O5.876
4961,[1108],Tl2Ba2Cu1O5.912,Tl2Ba2Cu1O5.912,"{'Ba': 2.0, 'Cu': 1.0, 'O': 5.912, 'Tl': 2.0}",82.0,82.0,0.0,1,Tl2 Ba2 Cu1 O5.912
4962,[1107],Tl2Ba2Cu1O5.929,Tl2Ba2Cu1O5.929,"{'Ba': 2.0, 'Cu': 1.0, 'O': 5.929, 'Tl': 2.0}",70.0,70.0,0.0,1,Tl2 Ba2 Cu1 O5.929
4963,[1106],Tl2Ba2Cu1O5.94,Tl2Ba2Cu1O5.94,"{'Ba': 2.0, 'Cu': 1.0, 'O': 5.94, 'Tl': 2.0}",58.0,58.0,0.0,1,Tl2 Ba2 Cu1 O5.94
4964,[1099],Tl2Ba2Cu1O5.943,Tl2Ba2Cu1O5.943,"{'Ba': 2.0, 'Cu': 1.0, 'O': 5.943, 'Tl': 2.0}",56.0,56.0,0.0,1,Tl2 Ba2 Cu1 O5.943
4965,[1098],Tl2Ba2Cu1O5.947,Tl2Ba2Cu1O5.947,"{'Ba': 2.0, 'Cu': 1.0, 'O': 5.947, 'Tl': 2.0}",50.0,50.0,0.0,1,Tl2 Ba2 Cu1 O5.947
4966,[1097],Tl2Ba2Cu1O5.957,Tl2Ba2Cu1O5.957,"{'Ba': 2.0, 'Cu': 1.0, 'O': 5.957, 'Tl': 2.0}",38.0,38.0,0.0,1,Tl2 Ba2 Cu1 O5.957
4967,[1115],Tl2Ba2Cu1O5.963,Tl2Ba2Cu1O5.963,"{'Ba': 2.0, 'Cu': 1.0, 'O': 5.963, 'Tl': 2.0}",53.0,53.0,0.0,1,Tl2 Ba2 Cu1 O5.963
4968,[1086],Tl2Ba2Cu1O5.989,Tl2Ba2Cu1O5.989,"{'Ba': 2.0, 'Cu': 1.0, 'O': 5.989, 'Tl': 2.0}",10.0,10.0,0.0,1,Tl2 Ba2 Cu1 O5.989
4969,[3670],Tl1.7Ba2Cu1O6,Tl1.7Ba2Cu1O6,"{'Ba': 2.0, 'Cu': 1.0, 'O': 6.0, 'Tl': 1.7000000000000002}",24.0,24.0,0.0,1,Tl1.7 Ba2 Cu1 O6
4970,"[1116, 1493, 2262, 2475, 2476, 2477, 2478, 2479, 2480, 2481, 2482, 2501, 2744, 3244, 3581, 3582, 3847, 4362, 4363, 4565, 4566, 5571, 5622, 5623, 6365, 6366, 6423, 6787, 6789, 6790, 6791, 7311, 7312, 7902, 8553, 8554, 8803, 8909, 8910, 8927, 8928, 8929, 8930, 8931, 9753, 9986, 10409, 10410, 12184, 12185, 12186, 12187, 12188, 12189, 21634, 21635, 21636, 21981, 24198, 24199, 24200, 24201]",Tl2Ba2Cu1O6,Tl2Ba2Cu1O6,"{'Ba': 2.0, 'Cu': 1.0, 'O': 6.0, 'Tl': 2.0}",117.0,56.5032258065,28.7095688653,62,Tl2 Ba2 Cu1 O6
4971,[1688],Tl2Ba2Cu1O6.01,Tl2Ba2Cu1O6.01,"{'Ba': 2.0, 'Cu': 1.0, 'O': 6.01, 'Tl': 2.0}",81.0,81.0,0.0,1,Tl2 Ba2 Cu1 O6.01
4972,[1689],Tl2Ba2Cu1O6.03,Tl2Ba2Cu1O6.03,"{'Ba': 2.0, 'Cu': 1.0, 'O': 6.03, 'Tl': 2.0}",62.0,62.0,0.0,1,Tl2 Ba2 Cu1 O6.03
4973,[1690],Tl2Ba2Cu1O6.05,Tl2Ba2Cu1O6.05,"{'Ba': 2.0, 'Cu': 1.0, 'O': 6.05, 'Tl': 2.0}",47.0,47.0,0.0,1,Tl2 Ba2 Cu1 O6.05
4974,[6788],Tl2Ba2Cu1O6.056,Tl2Ba2Cu1O6.056,"{'Ba': 2.0, 'Cu': 1.0, 'O': 6.056, 'Tl': 2.0}",40.0,40.0,0.0,1,Tl2 Ba2 Cu1 O6.056
4975,[1691],Tl2Ba2Cu1O6.08,Tl2Ba2Cu1O6.08,"{'Ba': 2.0, 'Cu': 1.0, 'O': 6.08, 'Tl': 2.0}",16.0,16.0,0.0,1,Tl2 Ba2 Cu1 O6.08
4976,"[1220, 3474]",Tl2Ba2Cu1O6.1,Tl2Ba2Cu1O6.1,"{'Ba': 2.0, 'Cu': 1.0, 'O': 6.1, 'Tl': 2.0}",92.5,92.45,0.05,2,Tl2 Ba2 Cu1 O6.1
4977,[1221],Tl2Ba2Cu1O6.12,Tl2Ba2Cu1O6.12,"{'Ba': 2.0, 'Cu': 1.0, 'O': 6.12, 'Tl': 2.0}",87.8,87.8,0.0,1,Tl2 Ba2 Cu1 O6.12
4978,[1222],Tl2Ba2Cu1O6.16,Tl2Ba2Cu1O6.16,"{'Ba': 2.0, 'Cu': 1.0, 'O': 6.16, 'Tl': 2.0}",64.9,64.9,0.0,1,Tl2 Ba2 Cu1 O6.16
4979,[6786],Tl2Ba2Cu1O6.164,Tl2Ba2Cu1O6.164,"{'Ba': 2.0, 'Cu': 1.0, 'O': 6.164, 'Tl': 2.0}",0.0,0.0,0.0,1,Tl2 Ba2 Cu1 O6.164
4980,[1223],Tl2Ba2Cu1O6.19,Tl2Ba2Cu1O6.19,"{'Ba': 2.0, 'Cu': 1.0, 'O': 6.19, 'Tl': 2.0}",45.3,45.3,0.0,1,Tl2 Ba2 Cu1 O6.19
4981,"[4248, 5108]",Y1Ba2Cu1O8,Y1Ba2Cu1O8,"{'Ba': 2.0, 'Cu': 1.0, 'O': 8.0, 'Y': 1.0}",84.5,82.25,2.25,2,Y1 Ba2 Cu1 O8
4982,[8738],Hg0.8Ba2Cu1.05O4+y,Hg0.8Ba2Cu1.05O4,"{'Ba': 2.0, 'Cu': 1.05, 'Hg': 0.8, 'O': 4.0}",95.8,95.8,0.0,1,Hg0.8 Ba2 Cu1.05 O4
4983,[8734],Hg0.85Ba2Cu1.05O4+y,Hg0.85Ba2Cu1.05O4,"{'Ba': 2.0, 'Cu': 1.05, 'Hg': 0.85, 'O': 4.0}",95.5,95.5,0.0,1,Hg0.85 Ba2 Cu1.05 O4