,sc_id,supercon_formula,cleaned_formula,material_dict,highest_Tc,average_Tc,std_Tc,entry_count,composition
875,[20896],Ce1Fe0.85Co0.15As1O1,Ce1Fe0.85Co0.15As1O1,"{'As': 1.0, 'Ce': 1.0, 'Co': 0.15, 'Fe': 0.85, 'O': 1.0}",5.0,5.0,0.0,1,Ce1 Fe0.85 Co0.15 As1 O1
876,[24250],Ce1Fe0.83Co0.17As1H1,Ce1Fe0.83Co0.17As1H1,"{'As': 1.0, 'Ce': 1.0, 'Co': 0.17, 'Fe': 0.8300000000000001, 'H': 1.0}",19.5,19.5,0.0,1,Ce1 Fe0.83 Co0.17 As1 H1
877,[24251],Ce1Fe0.78Co0.22As1H1,Ce1Fe0.78Co0.22As1H1,"{'As': 1.0, 'Ce': 1.0, 'Co': 0.22, 'Fe': 0.78, 'H': 1.0}",13.5,13.5,0.0,1,Ce1 Fe0.78 Co0.22 As1 H1
878,[24252],Ce1Fe0.74Co0.26As1H1,Ce1Fe0.74Co0.26As1H1,"{'As': 1.0, 'Ce': 1.0, 'Co': 0.26, 'Fe': 0.74, 'H': 1.0}",10.0,10.0,0.0,1,Ce1 Fe0.74 Co0.26 As1 H1
879,[24253],Ce1Fe0.69Co0.31As1H1,Ce1Fe0.69Co0.31As1H1,"{'As': 1.0, 'Ce': 1.0, 'Co': 0.31, 'Fe': 0.6900000000000001, 'H': 1.0}",0.0,0.0,0.0,1,Ce1 Fe0.69 Co0.31 As1 H1
880,"[22354, 24226]",Ce1Fe1As1F0.05O0.95,Ce1Fe1As1F0.05O0.95,"{'As': 1.0, 'Ce': 1.0, 'F': 0.05, 'Fe': 1.0, 'O': 0.9500000000000001}",11.9,11.8,0.1,2,Ce1 Fe1 As1 F0.05 O0.95
881,[24441],Ce1Fe1As1F0.06O0.94,Ce1Fe1As1F0.06O0.94,"{'As': 1.0, 'Ce': 1.0, 'F': 0.06, 'Fe': 1.0, 'O': 0.9400000000000001}",0.0,0.0,0.0,1,Ce1 Fe1 As1 F0.06 O0.94
882,[24442],Ce1Fe1As1F0.08O0.92,Ce1Fe1As1F0.08O0.92,"{'As': 1.0, 'Ce': 1.0, 'F': 0.08, 'Fe': 1.0, 'O': 0.92}",27.6,27.6,0.0,1,Ce1 Fe1 As1 F0.08 O0.92
883,"[20899, 23385, 24443]",Ce1Fe1As1F0.1O0.9,Ce1Fe1As1F0.1O0.9,"{'As': 1.0, 'Ce': 1.0, 'F': 0.1, 'Fe': 1.0, 'O': 0.9}",38.2,36.3333333333,2.4997777679,3,Ce1 Fe1 As1 F0.1 O0.9
884,[20578],Ce1Fe1As1F0.11O0.89,Ce1Fe1As1F0.11O0.89,"{'As': 1.0, 'Ce': 1.0, 'F': 0.11, 'Fe': 1.0, 'O': 0.89}",47.0,47.0,0.0,1,Ce1 Fe1 As1 F0.11 O0.89
885,"[20577, 20769]",Ce1Fe1As1F0.12O0.88,Ce1Fe1As1F0.12O0.88,"{'As': 1.0, 'Ce': 1.0, 'F': 0.12, 'Fe': 1.0, 'O': 0.88}",47.0,43.5,3.5,2,Ce1 Fe1 As1 F0.12 O0.88
886,"[20576, 22606, 24444]",Ce1Fe1As1F0.16O0.84,Ce1Fe1As1F0.16O0.84,"{'As': 1.0, 'Ce': 1.0, 'F': 0.16, 'Fe': 1.0, 'O': 0.84}",41.0,40.9,0.14142135620000001,3,Ce1 Fe1 As1 F0.16 O0.84
887,[20900],Ce1Fe1As1F0.2O0.8,Ce1Fe1As1F0.2O0.8,"{'As': 1.0, 'Ce': 1.0, 'F': 0.2, 'Fe': 1.0, 'O': 0.8}",40.4,40.4,0.0,1,Ce1 Fe1 As1 F0.2 O0.8
888,[22607],Ce1Fe1As1F0.3O0.7,Ce1Fe1As1F0.3O0.7,"{'As': 1.0, 'Ce': 1.0, 'F': 0.30000000000000004, 'Fe': 1.0, 'O': 0.7000000000000001}",46.0,46.0,0.0,1,Ce1 Fe1 As1 F0.3 O0.7
889,[23781],Ce1Fe1As1H0.065O0.935,Ce1Fe1As1H0.065O0.935,"{'As': 1.0, 'Ce': 1.0, 'Fe': 1.0, 'H': 0.065, 'O': 0.935}",41.1,41.1,0.0,1,Ce1 Fe1 As1 H0.065 O0.935
890,[22921],Ce1Fe1As1H0.07O0.93,Ce1Fe1As1H0.07O0.93,"{'As': 1.0, 'Ce': 1.0, 'Fe': 1.0, 'H': 0.07, 'O': 0.93}",31.3,31.3,0.0,1,Ce1 Fe1 As1 H0.07 O0.93
891,[22922],Ce1Fe1As1H0.2O0.8,Ce1Fe1As1H0.2O0.8,"{'As': 1.0, 'Ce': 1.0, 'Fe': 1.0, 'H': 0.2, 'O': 0.8}",45.6,45.6,0.0,1,Ce1 Fe1 As1 H0.2 O0.8
892,[23996],Ce1Fe1As1H0.21O0.79,Ce1Fe1As1H0.21O0.79,"{'As': 1.0, 'Ce': 1.0, 'Fe': 1.0, 'H': 0.21, 'O': 0.79}",48.0,48.0,0.0,1,Ce1 Fe1 As1 H0.21 O0.79
893,[23782],Ce1Fe1As1H0.22O0.78,Ce1Fe1As1H0.22O0.78,"{'As': 1.0, 'Ce': 1.0, 'Fe': 1.0, 'H': 0.22, 'O': 0.78}",48.0,48.0,0.0,1,Ce1 Fe1 As1 H0.22 O0.78
894,[22923],Ce1Fe1As1H0.3O0.7,Ce1Fe1As1H0.3O0.7,"{'As': 1.0, 'Ce': 1.0, 'Fe': 1.0, 'H': 0.30000000000000004, 'O': 0.7000000000000001}",44.9,44.9,0.0,1,Ce1 Fe1 As1 H0.3 O0.7
895,"[22924, 23783]",Ce1Fe1As1H0.4O0.6,Ce1Fe1As1H0.4O0.6,"{'As': 1.0, 'Ce': 1.0, 'Fe': 1.0, 'H': 0.4, 'O': 0.6000000000000001}",43.1,40.2,2.9,2,Ce1 Fe1 As1 H0.4 O0.6
896,[22031],Ce1Fe1As1H0.6O0.6,Ce1Fe1As1H0.6O0.6,"{'As': 1.0, 'Ce': 1.0, 'Fe': 1.0, 'H': 0.6000000000000001, 'O': 0.6000000000000001}",45.8,45.8,0.0,1,Ce1 Fe1 As1 H0.6 O0.6
897,"[20929, 22037]",Ce1Fe1As1O0.7,Ce1Fe1As1O0.7,"{'As': 1.0, 'Ce': 1.0, 'Fe': 1.0, 'O': 0.7000000000000001}",40.2,40.2,0.0,2,Ce1 Fe1 As1 O0.7
898,[20560],Ce1Fe1As1O0.85,Ce1Fe1As1O0.85,"{'As': 1.0, 'Ce': 1.0, 'Fe': 1.0, 'O': 0.85}",42.6,42.6,0.0,1,Ce1 Fe1 As1 O0.85
899,[23549],Na1Fe0.995Co0.005As1,Na1Fe0.995Co0.005As1,"{'As': 1.0, 'Co': 0.005, 'Fe': 0.995, 'Na': 1.0}",9.81,9.81,0.0,1,Na1 Fe0.995 Co0.005 As1
900,"[21452, 22930, 23550, 23594, 24882]",Na1Fe0.99Co0.01As1,Na1Fe0.99Co0.01As1,"{'As': 1.0, 'Co': 0.01, 'Fe': 0.99, 'Na': 1.0}",17.9,12.48,6.560304871,5,Na1 Fe0.99 Co0.01 As1
901,"[20693, 22160]",La1Fe0.9875Co0.0125As1F0.11O0.89,La1Fe0.9875Co0.0125As1F0.11O0.89,"{'As': 1.0, 'Co': 0.0125, 'F': 0.11, 'Fe': 0.9875, 'La': 1.0, 'O': 0.89}",25.0,24.5,0.5,2,La1 Fe0.9875 Co0.0125 As1 F0.11 O0.89
902,[24883],Na1Fe0.9875Co0.0125As1,Na1Fe0.9875Co0.0125As1,"{'As': 1.0, 'Co': 0.0125, 'Fe': 0.9875, 'Na': 1.0}",13.9,13.9,0.0,1,Na1 Fe0.9875 Co0.0125 As1
903,"[23551, 24884]",Na1Fe0.985Co0.015As1,Na1Fe0.985Co0.015As1,"{'As': 1.0, 'Co': 0.015, 'Fe': 0.985, 'Na': 1.0}",19.9,16.25,3.65,2,Na1 Fe0.985 Co0.015 As1
904,[24885],Na1Fe0.9825Co0.0175As1,Na1Fe0.9825Co0.0175As1,"{'As': 1.0, 'Co': 0.0175, 'Fe': 0.9825, 'Na': 1.0}",15.8,15.8,0.0,1,Na1 Fe0.9825 Co0.0175 As1
905,[24886],Na1Fe0.981Co0.019As1,Na1Fe0.981Co0.019As1,"{'As': 1.0, 'Co': 0.019, 'Fe': 0.981, 'Na': 1.0}",19.3,19.3,0.0,1,Na1 Fe0.981 Co0.019 As1
906,[20694],La1Fe0.98Co0.02As1F0.11O0.89,La1Fe0.98Co0.02As1F0.11O0.89,"{'As': 1.0, 'Co': 0.02, 'F': 0.11, 'Fe': 0.98, 'La': 1.0, 'O': 0.89}",10.3,10.3,0.0,1,La1 Fe0.98 Co0.02 As1 F0.11 O0.89
907,[22165],Nd1Fe0.98Co0.02As1F0.11O0.89,Nd1Fe0.98Co0.02As1F0.11O0.89,"{'As': 1.0, 'Co': 0.02, 'F': 0.11, 'Fe': 0.98, 'Nd': 1.0, 'O': 0.89}",40.1,40.1,0.0,1,Nd1 Fe0.98 Co0.02 As1 F0.11 O0.89
908,[23595],Na1Fe0.98Co0.02As1,Na1Fe0.98Co0.02As1,"{'As': 1.0, 'Co': 0.02, 'Fe': 0.98, 'Na': 1.0}",18.8,18.8,0.0,1,Na1 Fe0.98 Co0.02 As1
909,[22931],Na1Fe0.979Co0.021As1,Na1Fe0.979Co0.021As1,"{'As': 1.0, 'Co': 0.021, 'Fe': 0.979, 'Na': 1.0}",19.4,19.4,0.0,1,Na1 Fe0.979 Co0.021 As1
910,[24887],Na1Fe0.977Co0.023As1,Na1Fe0.977Co0.023As1,"{'As': 1.0, 'Co': 0.023, 'Fe': 0.977, 'Na': 1.0}",15.7,15.7,0.0,1,Na1 Fe0.977 Co0.023 As1
911,[20970],La1Fe0.975Co0.025As1O1,La1Fe0.975Co0.025As1O1,"{'As': 1.0, 'Co': 0.025, 'Fe': 0.975, 'La': 1.0, 'O': 1.0}",8.58,8.58,0.0,1,La1 Fe0.975 Co0.025 As1 O1
912,"[22469, 22475]",Li1Fe0.975Co0.025As1,Li1Fe0.975Co0.025As1,"{'As': 1.0, 'Co': 0.025, 'Fe': 0.975, 'Li': 1.0}",13.8,13.4,0.4,2,Li1 Fe0.975 Co0.025 As1
913,"[21453, 23282]",Na1Fe0.975Co0.025As1,Na1Fe0.975Co0.025As1,"{'As': 1.0, 'Co': 0.025, 'Fe': 0.975, 'Na': 1.0}",21.1,21.05,0.05,2,Na1 Fe0.975 Co0.025 As1
914,[22932],Na1Fe0.972Co0.028As1,Na1Fe0.972Co0.028As1,"{'As': 1.0, 'Co': 0.028, 'Fe': 0.972, 'Na': 1.0}",20.1,20.1,0.0,1,Na1 Fe0.972 Co0.028 As1
915,"[23350, 23552, 23596]",Na1Fe0.97Co0.03As1,Na1Fe0.97Co0.03As1,"{'As': 1.0, 'Co': 0.03, 'Fe': 0.97, 'Na': 1.0}",22.0,21.1333333333,0.6599663291,3,Na1 Fe0.97 Co0.03 As1
916,[22161],La1Fe0.95Co0.05As1F0.11O0.89,La1Fe0.95Co0.05As1F0.11O0.89,"{'As': 1.0, 'Co': 0.05, 'F': 0.11, 'Fe': 0.9500000000000001, 'La': 1.0, 'O': 0.89}",16.1,16.1,0.0,1,La1 Fe0.95 Co0.05 As1 F0.11 O0.89
917,[22166],Nd1Fe0.95Co0.05As1F0.11O0.89,Nd1Fe0.95Co0.05As1F0.11O0.89,"{'As': 1.0, 'Co': 0.05, 'F': 0.11, 'Fe': 0.9500000000000001, 'Nd': 1.0, 'O': 0.89}",30.1,30.1,0.0,1,Nd1 Fe0.95 Co0.05 As1 F0.11 O0.89
918,"[20676, 20971]",La1Fe0.95Co0.05As1O1,La1Fe0.95Co0.05As1O1,"{'As': 1.0, 'Co': 0.05, 'Fe': 0.9500000000000001, 'La': 1.0, 'O': 1.0}",13.02,12.01,1.01,2,La1 Fe0.95 Co0.05 As1 O1
919,"[22470, 22476]",Li1Fe0.95Co0.05As1,Li1Fe0.95Co0.05As1,"{'As': 1.0, 'Co': 0.05, 'Fe': 0.9500000000000001, 'Li': 1.0}",10.8,10.29,0.51,2,Li1 Fe0.95 Co0.05 As1
920,[22293],Sr2Mg0.5Ti0.5Fe0.95Co0.05As1O3,Sr2Mg0.5Ti0.5Fe0.95Co0.05As1O3,"{'As': 1.0, 'Co': 0.05, 'Fe': 0.9500000000000001, 'Mg': 0.5, 'O': 3.0, 'Sr': 2.0, 'Ti': 0.5}",26.2,26.2,0.0,1,Sr2 Mg0.5 Ti0.5 Fe0.95 Co0.05 As1 O3
921,"[21454, 23553, 23597]",Na1Fe0.95Co0.05As1,Na1Fe0.95Co0.05As1,"{'As': 1.0, 'Co': 0.05, 'Fe': 0.9500000000000001, 'Na': 1.0}",17.0,16.3,0.4966554809,3,Na1 Fe0.95 Co0.05 As1
922,[22128],Pr0.8Sr0.2Fe0.95Co0.05As1O1,Pr0.8Sr0.2Fe0.95Co0.05As1O1,"{'As': 1.0, 'Co': 0.05, 'Fe': 0.9500000000000001, 'O': 1.0, 'Pr': 0.8, 'Sr': 0.2}",7.05,7.05,0.0,1,Pr0.8 Sr0.2 Fe0.95 Co0.05 As1 O1
923,"[21482, 22123, 22506]",Pr1Fe0.95Co0.05As1O1,Pr1Fe0.95Co0.05As1O1,"{'As': 1.0, 'Co': 0.05, 'Fe': 0.9500000000000001, 'O': 1.0, 'Pr': 1.0}",8.76,6.14,1.8556580145,3,Pr1 Fe0.95 Co0.05 As1 O1
924,[20975],Sm1Fe0.95Co0.05As1O1,Sm1Fe0.95Co0.05As1O1,"{'As': 1.0, 'Co': 0.05, 'Fe': 0.9500000000000001, 'O': 1.0, 'Sm': 1.0}",5.13,5.13,0.0,1,Sm1 Fe0.95 Co0.05 As1 O1
925,[22933],Na1Fe0.939Co0.061As1,Na1Fe0.939Co0.061As1,"{'As': 1.0, 'Co': 0.061, 'Fe': 0.9390000000000001, 'Na': 1.0}",13.4,13.4,0.0,1,Na1 Fe0.939 Co0.061 As1
926,[21455],Na1Fe0.93Co0.07As1,Na1Fe0.93Co0.07As1,"{'As': 1.0, 'Co': 0.07, 'Fe': 0.93, 'Na': 1.0}",14.0,14.0,0.0,1,Na1 Fe0.93 Co0.07 As1
927,[20972],La1Fe0.925Co0.075As1O1,La1Fe0.925Co0.075As1O1,"{'As': 1.0, 'Co': 0.075, 'Fe': 0.925, 'La': 1.0, 'O': 1.0}",12.66,12.66,0.0,1,La1 Fe0.925 Co0.075 As1 O1
928,[22477],Li1Fe0.925Co0.075As1,Li1Fe0.925Co0.075As1,"{'As': 1.0, 'Co': 0.075, 'Fe': 0.925, 'Li': 1.0}",7.66,7.66,0.0,1,Li1 Fe0.925 Co0.075 As1
929,[22934],Na1Fe0.925Co0.075As1,Na1Fe0.925Co0.075As1,"{'As': 1.0, 'Co': 0.075, 'Fe': 0.925, 'Na': 1.0}",10.6,10.6,0.0,1,Na1 Fe0.925 Co0.075 As1
930,[22129],Pr0.8Sr0.2Fe0.925Co0.075As1O1,Pr0.8Sr0.2Fe0.925Co0.075As1O1,"{'As': 1.0, 'Co': 0.075, 'Fe': 0.925, 'O': 1.0, 'Pr': 0.8, 'Sr': 0.2}",3.5,3.5,0.0,1,Pr0.8 Sr0.2 Fe0.925 Co0.075 As1 O1
931,"[21397, 22006, 22124]",Pr1Fe0.925Co0.075As1O1,Pr1Fe0.925Co0.075As1O1,"{'As': 1.0, 'Co': 0.075, 'Fe': 0.925, 'O': 1.0, 'Pr': 1.0}",15.7,15.0333333333,0.5312459150000001,3,Pr1 Fe0.925 Co0.075 As1 O1
932,"[20976, 22616]",Sm1Fe0.925Co0.075As1O1,Sm1Fe0.925Co0.075As1O1,"{'As': 1.0, 'Co': 0.075, 'Fe': 0.925, 'O': 1.0, 'Sm': 1.0}",15.0,13.3,1.7000000000000002,2,Sm1 Fe0.925 Co0.075 As1 O1
933,[23598],Na1Fe0.92Co0.08As1,Na1Fe0.92Co0.08As1,"{'As': 1.0, 'Co': 0.08, 'Fe': 0.92, 'Na': 1.0}",7.53,7.53,0.0,1,Na1 Fe0.92 Co0.08 As1
934,[22167],Nd1Fe0.9Co0.1As1F0.11O0.89,Nd1Fe0.9Co0.1As1F0.11O0.89,"{'As': 1.0, 'Co': 0.1, 'F': 0.11, 'Fe': 0.9, 'Nd': 1.0, 'O': 0.89}",9.0,9.0,0.0,1,Nd1 Fe0.9 Co0.1 As1 F0.11 O0.89
935,[20973],La1Fe0.9Co0.1As1O1,La1Fe0.9Co0.1As1O1,"{'As': 1.0, 'Co': 0.1, 'Fe': 0.9, 'La': 1.0, 'O': 1.0}",11.02,11.02,0.0,1,La1 Fe0.9 Co0.1 As1 O1
936,[21456],Na1Fe0.9Co0.1As1,Na1Fe0.9Co0.1As1,"{'As': 1.0, 'Co': 0.1, 'Fe': 0.9, 'Na': 1.0}",0.0,0.0,0.0,1,Na1 Fe0.9 Co0.1 As1
937,[22130],Pr0.8Sr0.2Fe0.9Co0.1As1O1,Pr0.8Sr0.2Fe0.9Co0.1As1O1,"{'As': 1.0, 'Co': 0.1, 'Fe': 0.9, 'O': 1.0, 'Pr': 0.8, 'Sr': 0.2}",6.86,6.86,0.0,1,Pr0.8 Sr0.2 Fe0.9 Co0.1 As1 O1
938,"[21483, 22125, 23257]",Pr1Fe0.9Co0.1As1O1,Pr1Fe0.9Co0.1As1O1,"{'As': 1.0, 'Co': 0.1, 'Fe': 0.9, 'O': 1.0, 'Pr': 1.0}",16.0,14.5333333333,1.0370899457,3,Pr1 Fe0.9 Co0.1 As1 O1
939,"[20977, 22617, 22621]",Sm1Fe0.9Co0.1As1O1,Sm1Fe0.9Co0.1As1O1,"{'As': 1.0, 'Co': 0.1, 'Fe': 0.9, 'O': 1.0, 'Sm': 1.0}",17.3,15.9666666667,0.9741092797,3,Sm1 Fe0.9 Co0.1 As1 O1
940,[20677],La1Fe0.89Co0.11As1O1,La1Fe0.89Co0.11As1O1,"{'As': 1.0, 'Co': 0.11, 'Fe': 0.89, 'La': 1.0, 'O': 1.0}",14.0,14.0,0.0,1,La1 Fe0.89 Co0.11 As1 O1
941,[20974],La1Fe0.875Co0.125As1O1,La1Fe0.875Co0.125As1O1,"{'As': 1.0, 'Co': 0.125, 'Fe': 0.875, 'La': 1.0, 'O': 1.0}",6.6,6.6,0.0,1,La1 Fe0.875 Co0.125 As1 O1
942,"[20978, 22618]",Sm1Fe0.875Co0.125As1O1,Sm1Fe0.875Co0.125As1O1,"{'As': 1.0, 'Co': 0.125, 'Fe': 0.875, 'O': 1.0, 'Sm': 1.0}",15.8,14.3,1.5,2,Sm1 Fe0.875 Co0.125 As1 O1
943,[20678],La1Fe0.85Co0.15As1O1,La1Fe0.85Co0.15As1O1,"{'As': 1.0, 'Co': 0.15, 'Fe': 0.85, 'La': 1.0, 'O': 1.0}",6.0,6.0,0.0,1,La1 Fe0.85 Co0.15 As1 O1
944,"[22131, 22508]",Pr0.8Sr0.2Fe0.85Co0.15As1O1,Pr0.8Sr0.2Fe0.85Co0.15As1O1,"{'As': 1.0, 'Co': 0.15, 'Fe': 0.85, 'O': 1.0, 'Pr': 0.8, 'Sr': 0.2}",16.0,15.9,0.1,2,Pr0.8 Sr0.2 Fe0.85 Co0.15 As1 O1
945,"[21484, 22126]",Pr1Fe0.85Co0.15As1O1,Pr1Fe0.85Co0.15As1O1,"{'As': 1.0, 'Co': 0.15, 'Fe': 0.85, 'O': 1.0, 'Pr': 1.0}",9.07,7.485,1.585,2,Pr1 Fe0.85 Co0.15 As1 O1
946,"[20979, 22619]",Sm1Fe0.85Co0.15As1O1,Sm1Fe0.85Co0.15As1O1,"{'As': 1.0, 'Co': 0.15, 'Fe': 0.85, 'O': 1.0, 'Sm': 1.0}",11.75,10.875,0.875,2,Sm1 Fe0.85 Co0.15 As1 O1
947,[22620],Sm1Fe0.825Co0.175As1O1,Sm1Fe0.825Co0.175As1O1,"{'As': 1.0, 'Co': 0.17500000000000002, 'Fe': 0.8250000000000001, 'O': 1.0, 'Sm': 1.0}",5.8,5.8,0.0,1,Sm1 Fe0.825 Co0.175 As1 O1
948,[22132],Pr0.8Sr0.2Fe0.8Co0.2As1O1,Pr0.8Sr0.2Fe0.8Co0.2As1O1,"{'As': 1.0, 'Co': 0.2, 'Fe': 0.8, 'O': 1.0, 'Pr': 0.8, 'Sr': 0.2}",11.5,11.5,0.0,1,Pr0.8 Sr0.2 Fe0.8 Co0.2 As1 O1
949,[21485],Pr1Fe0.8Co0.2As1O1,Pr1Fe0.8Co0.2As1O1,"{'As': 1.0, 'Co': 0.2, 'Fe': 0.8, 'O': 1.0, 'Pr': 1.0}",4.0,4.0,0.0,1,Pr1 Fe0.8 Co0.2 As1 O1
950,[20980],Sm1Fe0.8Co0.2As1O1,Sm1Fe0.8Co0.2As1O1,"{'As': 1.0, 'Co': 0.2, 'Fe': 0.8, 'O': 1.0, 'Sm': 1.0}",3.79,3.79,0.0,1,Sm1 Fe0.8 Co0.2 As1 O1
951,[22133],Pr0.8Sr0.2Fe0.7Co0.3As1O1,Pr0.8Sr0.2Fe0.7Co0.3As1O1,"{'As': 1.0, 'Co': 0.30000000000000004, 'Fe': 0.7000000000000001, 'O': 1.0, 'Pr': 0.8, 'Sr': 0.2}",4.48,4.48,0.0,1,Pr0.8 Sr0.2 Fe0.7 Co0.3 As1 O1
952,[21486],Pr1Fe0.7Co0.3As1O1,Pr1Fe0.7Co0.3As1O1,"{'As': 1.0, 'Co': 0.30000000000000004, 'Fe': 0.7000000000000001, 'O': 1.0, 'Pr': 1.0}",4.0,4.0,0.0,1,Pr1 Fe0.7 Co0.3 As1 O1
953,"[23766, 24697, 25752]",As1Cr1,As1Cr1,"{'As': 1.0, 'Cr': 1.0}",2.17,1.842,0.2711358823,3,As1 Cr1
954,[25099],Na1Fe0.996Cu0.004As1,Na1Fe0.996Cu0.004As1,"{'As': 1.0, 'Cu': 0.004, 'Fe': 0.996, 'Na': 1.0}",10.14,10.14,0.0,1,Na1 Fe0.996 Cu0.004 As1
955,[25208],Na1Fe0.994Cu0.006As1,Na1Fe0.994Cu0.006As1,"{'As': 1.0, 'Cu': 0.006, 'Fe': 0.994, 'Na': 1.0}",10.2,10.2,0.0,1,Na1 Fe0.994 Cu0.006 As1
956,[25100],Na1Fe0.986Cu0.014As1,Na1Fe0.986Cu0.014As1,"{'As': 1.0, 'Cu': 0.014, 'Fe': 0.986, 'Na': 1.0}",12.25,12.25,0.0,1,Na1 Fe0.986 Cu0.014 As1
957,[25101],Na1Fe0.982Cu0.018As1,Na1Fe0.982Cu0.018As1,"{'As': 1.0, 'Cu': 0.018000000000000002, 'Fe': 0.982, 'Na': 1.0}",12.6,12.6,0.0,1,Na1 Fe0.982 Cu0.018 As1
958,[25209],Na1Fe0.981Cu0.019As1,Na1Fe0.981Cu0.019As1,"{'As': 1.0, 'Cu': 0.019, 'Fe': 0.981, 'Na': 1.0}",11.5,11.5,0.0,1,Na1 Fe0.981 Cu0.019 As1
959,[23166],Li1Fe0.98Cu0.02As1,Li1Fe0.98Cu0.02As1,"{'As': 1.0, 'Cu': 0.02, 'Fe': 0.98, 'Li': 1.0}",9.3,9.3,0.0,1,Li1 Fe0.98 Cu0.02 As1
960,[25102],Na1Fe0.978Cu0.022As1,Na1Fe0.978Cu0.022As1,"{'As': 1.0, 'Cu': 0.022, 'Fe': 0.978, 'Na': 1.0}",11.6,11.6,0.0,1,Na1 Fe0.978 Cu0.022 As1
961,[25211],Na1Fe0.976Cu0.024As1,Na1Fe0.976Cu0.024As1,"{'As': 1.0, 'Cu': 0.024, 'Fe': 0.976, 'Na': 1.0}",11.1,11.1,0.0,1,Na1 Fe0.976 Cu0.024 As1
962,[25103],Na1Fe0.975Cu0.025As1,Na1Fe0.975Cu0.025As1,"{'As': 1.0, 'Cu': 0.025, 'Fe': 0.975, 'Na': 1.0}",11.3,11.3,0.0,1,Na1 Fe0.975 Cu0.025 As1
963,[25104],Na1Fe0.968Cu0.032As1,Na1Fe0.968Cu0.032As1,"{'As': 1.0, 'Cu': 0.032, 'Fe': 0.968, 'Na': 1.0}",10.8,10.8,0.0,1,Na1 Fe0.968 Cu0.032 As1
964,[25210],Na1Fe0.963Cu0.037As1,Na1Fe0.963Cu0.037As1,"{'As': 1.0, 'Cu': 0.037, 'Fe': 0.963, 'Na': 1.0}",2.6,2.6,0.0,1,Na1 Fe0.963 Cu0.037 As1
965,[22403],La0.81Dy0.06Sr0.13Fe1As1O1,La0.81Dy0.06Sr0.13Fe1As1O1,"{'As': 1.0, 'Dy': 0.06, 'Fe': 1.0, 'La': 0.81, 'O': 1.0, 'Sr': 0.13}",16.5,16.5,0.0,1,La0.81 Dy0.06 Sr0.13 Fe1 As1 O1
966,[21184],La0.62Dy0.38Fe1As1F0.175O0.825,La0.62Dy0.38Fe1As1F0.175O0.825,"{'As': 1.0, 'Dy': 0.38, 'F': 0.17500000000000002, 'Fe': 1.0, 'La': 0.62, 'O': 0.8250000000000001}",38.0,38.0,0.0,1,La0.62 Dy0.38 Fe1 As1 F0.175 O0.825
967,[21242],Dy1Fe1As1F0.1O0.9,Dy1Fe1As1F0.1O0.9,"{'As': 1.0, 'Dy': 1.0, 'F': 0.1, 'Fe': 1.0, 'O': 0.9}",45.0,45.0,0.0,1,Dy1 Fe1 As1 F0.1 O0.9
968,"[20935, 22033, 22034, 22035]",Dy1Fe1As1O0.7,Dy1Fe1As1O0.7,"{'As': 1.0, 'Dy': 1.0, 'Fe': 1.0, 'O': 0.7000000000000001}",51.2,45.85,5.8947010102,4,Dy1 Fe1 As1 O0.7
969,[21057],Dy1Fe1As1O0.85,Dy1Fe1As1O0.85,"{'As': 1.0, 'Dy': 1.0, 'Fe': 1.0, 'O': 0.85}",51.0,51.0,0.0,1,Dy1 Fe1 As1 O0.85
970,"[20452, 20585, 20618, 20630, 21019, 21042, 21153, 21443, 24213, 24493, 24545]",La1F0.05Fe1As1O0.95,La1F0.05Fe1As1O0.95,"{'As': 1.0, 'F': 0.05, 'Fe': 1.0, 'La': 1.0, 'O': 0.9500000000000001}",27.84,23.5490909091,3.6487742762,11,La1 F0.05 Fe1 As1 O0.95
971,[21909],Sm1Fe1As1F0.05O0.95,Sm1Fe1As1F0.05O0.95,"{'As': 1.0, 'F': 0.05, 'Fe': 1.0, 'O': 0.9500000000000001, 'Sm': 1.0}",39.0,39.0,0.0,1,Sm1 Fe1 As1 F0.05 O0.95
972,[22548],La1Fe1As1F0.055O0.945,La1Fe1As1F0.055O0.945,"{'As': 1.0, 'F': 0.055, 'Fe': 1.0, 'La': 1.0, 'O': 0.9450000000000001}",7.0,7.0,0.0,1,La1 Fe1 As1 F0.055 O0.945
973,[20583],La1Fe1As1F0.06O0.94,La1Fe1As1F0.06O0.94,"{'As': 1.0, 'F': 0.06, 'Fe': 1.0, 'La': 1.0, 'O': 0.9400000000000001}",18.0,18.0,0.0,1,La1 Fe1 As1 F0.06 O0.94
974,[20640],Nd1Fe1As1F0.06O0.94,Nd1Fe1As1F0.06O0.94,"{'As': 1.0, 'F': 0.06, 'Fe': 1.0, 'Nd': 1.0, 'O': 0.9400000000000001}",47.5,47.5,0.0,1,Nd1 Fe1 As1 F0.06 O0.94
975,[24235],Sm1Fe1As1F0.06O0.94,Sm1Fe1As1F0.06O0.94,"{'As': 1.0, 'F': 0.06, 'Fe': 1.0, 'O': 0.9400000000000001, 'Sm': 1.0}",36.4,36.4,0.0,1,Sm1 Fe1 As1 F0.06 O0.94
976,[21553],La1Ni1As1F0.06O0.94,La1Ni1As1F0.06O0.94,"{'As': 1.0, 'F': 0.06, 'La': 1.0, 'Ni': 1.0, 'O': 0.9400000000000001}",3.64,3.64,0.0,1,La1 Ni1 As1 F0.06 O0.94
977,"[21020, 21043]",La1Fe1As1F0.07O0.93,La1Fe1As1F0.07O0.93,"{'As': 1.0, 'F': 0.07, 'Fe': 1.0, 'La': 1.0, 'O': 0.93}",25.2,25.2,0.0,2,La1 Fe1 As1 F0.07 O0.93
978,[20998],Sm1Fe1As1F0.07O0.93,Sm1Fe1As1F0.07O0.93,"{'As': 1.0, 'F': 0.07, 'Fe': 1.0, 'O': 0.93, 'Sm': 1.0}",33.0,33.0,0.0,1,Sm1 Fe1 As1 F0.07 O0.93
979,"[20661, 24214]",La1Fe1As1F0.075O0.925,La1Fe1As1F0.075O0.925,"{'As': 1.0, 'F': 0.075, 'Fe': 1.0, 'La': 1.0, 'O': 0.925}",22.0,21.6,0.4,2,La1 Fe1 As1 F0.075 O0.925
980,[23242],Sm1Fe1As1F0.075O0.925,Sm1Fe1As1F0.075O0.925,"{'As': 1.0, 'F': 0.075, 'Fe': 1.0, 'O': 0.925, 'Sm': 1.0}",33.0,33.0,0.0,1,Sm1 Fe1 As1 F0.075 O0.925
981,[24167],La1Fe0.973Zn0.027As1F0.08O0.9,La1Fe0.973Zn0.027As1F0.08O0.9,"{'As': 1.0, 'F': 0.08, 'Fe': 0.973, 'La': 1.0, 'O': 0.9, 'Zn': 0.027}",0.0,0.0,0.0,1,La1 Fe0.973 Zn0.027 As1 F0.08 O0.9
982,[24166],La1Fe0.985Zn0.015As1F0.08O0.9,La1Fe0.985Zn0.015As1F0.08O0.9,"{'As': 1.0, 'F': 0.08, 'Fe': 0.985, 'La': 1.0, 'O': 0.9, 'Zn': 0.015}",0.2,0.2,0.0,1,La1 Fe0.985 Zn0.015 As1 F0.08 O0.9
983,[24165],La1Fe0.991Zn0.009As1F0.08O0.9,La1Fe0.991Zn0.009As1F0.08O0.9,"{'As': 1.0, 'F': 0.08, 'Fe': 0.991, 'La': 1.0, 'O': 0.9, 'Zn': 0.009000000000000001}",15.6,15.6,0.0,1,La1 Fe0.991 Zn0.009 As1 F0.08 O0.9
984,[24164],La1Fe1As1F0.08O0.9,La1Fe1As1F0.08O0.9,"{'As': 1.0, 'F': 0.08, 'Fe': 1.0, 'La': 1.0, 'O': 0.9}",25.9,25.9,0.0,1,La1 Fe1 As1 F0.08 O0.9
985,"[21444, 24494]",La1Fe1As1F0.08O0.92,La1Fe1As1F0.08O0.92,"{'As': 1.0, 'F': 0.08, 'Fe': 1.0, 'La': 1.0, 'O': 0.92}",30.4,26.6,3.8,2,La1 Fe1 As1 F0.08 O0.92
986,[20554],Nd1Fe1As1F0.08O0.92,Nd1Fe1As1F0.08O0.92,"{'As': 1.0, 'F': 0.08, 'Fe': 1.0, 'Nd': 1.0, 'O': 0.92}",35.0,35.0,0.0,1,Nd1 Fe1 As1 F0.08 O0.92
987,[21316],Pr1Fe1As1F0.082O0.918,Pr1Fe1As1F0.082O0.918,"{'As': 1.0, 'F': 0.082, 'Fe': 1.0, 'O': 0.918, 'Pr': 1.0}",14.6,14.6,0.0,1,Pr1 Fe1 As1 F0.082 O0.918
988,[21244],Sm1Fe1As1F0.085O0.915,Sm1Fe1As1F0.085O0.915,"{'As': 1.0, 'F': 0.085, 'Fe': 1.0, 'O': 0.915, 'Sm': 1.0}",14.0,14.0,0.0,1,Sm1 Fe1 As1 F0.085 O0.915
989,[21209],Sm1Fe1As1F0.09O0.91,Sm1Fe1As1F0.09O0.91,"{'As': 1.0, 'F': 0.09, 'Fe': 1.0, 'O': 0.91, 'Sm': 1.0}",42.0,42.0,0.0,1,Sm1 Fe1 As1 F0.09 O0.91
990,[22691],La1Fe0.85Zn0.15As1F0.1O0.9,La1Fe0.85Zn0.15As1F0.1O0.9,"{'As': 1.0, 'F': 0.1, 'Fe': 0.85, 'La': 1.0, 'O': 0.9, 'Zn': 0.15}",19.9,19.9,0.0,1,La1 Fe0.85 Zn0.15 As1 F0.1 O0.9
991,[22690],La1Fe0.9Zn0.1As1F0.1O0.9,La1Fe0.9Zn0.1As1F0.1O0.9,"{'As': 1.0, 'F': 0.1, 'Fe': 0.9, 'La': 1.0, 'O': 0.9, 'Zn': 0.1}",19.9,19.9,0.0,1,La1 Fe0.9 Zn0.1 As1 F0.1 O0.9
992,[22689],La1Fe0.95Zn0.05As1F0.1O0.9,La1Fe0.95Zn0.05As1F0.1O0.9,"{'As': 1.0, 'F': 0.1, 'Fe': 0.9500000000000001, 'La': 1.0, 'O': 0.9, 'Zn': 0.05}",25.4,25.4,0.0,1,La1 Fe0.95 Zn0.05 As1 F0.1 O0.9
993,[22688],La1Fe0.98Zn0.02As1F0.1O0.9,La1Fe0.98Zn0.02As1F0.1O0.9,"{'As': 1.0, 'F': 0.1, 'Fe': 0.98, 'La': 1.0, 'O': 0.9, 'Zn': 0.02}",25.5,25.5,0.0,1,La1 Fe0.98 Zn0.02 As1 F0.1 O0.9
994,[21243],Ho1Fe1As1F0.1O0.9,Ho1Fe1As1F0.1O0.9,"{'As': 1.0, 'F': 0.1, 'Fe': 1.0, 'Ho': 1.0, 'O': 0.9}",36.0,36.0,0.0,1,Ho1 Fe1 As1 F0.1 O0.9