,sc_id,supercon_formula,cleaned_formula,material_dict,highest_Tc,average_Tc,std_Tc,entry_count,composition
298,"[142, 740, 1632]",Y1Ba2Cu2.82Al0.18O7,Y1Ba2Cu2.82Al0.18O7,"{'Al': 0.18, 'Ba': 2.0, 'Cu': 2.8200000000000003, 'O': 7.0, 'Y': 1.0}",72.1,52.7,23.2561103082,3,Y1 Ba2 Cu2.82 Al0.18 O7
299,[15962],Nb0.76Al0.18Ge0.06,Nb0.76Al0.18Ge0.06,"{'Al': 0.18, 'Ge': 0.06, 'Nb': 0.76}",17.88,17.88,0.0,1,Nb0.76 Al0.18 Ge0.06
300,[15947],Nb0.75Al0.18Ge0.07,Nb0.75Al0.18Ge0.07,"{'Al': 0.18, 'Ge': 0.07, 'Nb': 0.75}",19.8,19.8,0.0,1,Nb0.75 Al0.18 Ge0.07
301,[12357],Al0.18La0.82,Al0.18La0.82,"{'Al': 0.18, 'La': 0.8200000000000001}",4.65,4.65,0.0,1,Al0.18 La0.82
302,[12673],Mg0.815Al0.185B2,Mg0.815Al0.185B2,"{'Al': 0.185, 'B': 2.0, 'Mg': 0.8150000000000001}",25.3,25.3,0.0,1,Mg0.815 Al0.185 B2
303,[15943],Nb0.75Al0.185Ge0.065,Nb0.75Al0.185Ge0.065,"{'Al': 0.185, 'Ge': 0.065, 'Nb': 0.75}",20.26,20.26,0.0,1,Nb0.75 Al0.185 Ge0.065
304,[15944],Nb0.75Al0.1875Ge0.0625,Nb0.75Al0.1875Ge0.0625,"{'Al': 0.1875, 'Ge': 0.0625, 'Nb': 0.75}",20.0,20.0,0.0,1,Nb0.75 Al0.1875 Ge0.0625
305,[16596],Mg0.81Al0.19B2,Mg0.81Al0.19B2,"{'Al': 0.19, 'B': 2.0, 'Mg': 0.81}",30.8,30.8,0.0,1,Mg0.81 Al0.19 B2
306,"[15873, 15946, 15958]",Nb0.75Al0.19Ge0.06,Nb0.75Al0.19Ge0.06,"{'Al': 0.19, 'Ge': 0.06, 'Nb': 0.75}",20.9,20.3,0.4242640687,3,Nb0.75 Al0.19 Ge0.06
307,[14791],Nb3Sn0.81Al0.19,Nb3Sn0.81Al0.19,"{'Al': 0.19, 'Nb': 3.0, 'Sn': 0.81}",14.6,14.6,0.0,1,Nb3 Sn0.81 Al0.19
308,"[11811, 17312]",Mg0.6Al0.2Li0.2B2,Mg0.6Al0.2Li0.2B2,"{'Al': 0.2, 'B': 2.0, 'Li': 0.2, 'Mg': 0.6000000000000001}",26.1,21.1,5.0,2,Mg0.6 Al0.2 Li0.2 B2
309,[17385],Mg0.6Zn0.2Al0.2B2,Mg0.6Zn0.2Al0.2B2,"{'Al': 0.2, 'B': 2.0, 'Mg': 0.6000000000000001, 'Zn': 0.2}",7.5,7.5,0.0,1,Mg0.6 Zn0.2 Al0.2 B2
310,"[12526, 12561, 12564, 12664, 16234, 16341, 17170, 17295, 17314, 19950]",Mg0.8Al0.2B2,Mg0.8Al0.2B2,"{'Al': 0.2, 'B': 2.0, 'Mg': 0.8}",36.0,28.71,4.2297635868,10,Mg0.8 Al0.2 B2
311,[12825],Al0.2B5Mo1.8,Al0.2B5Mo1.8,"{'Al': 0.2, 'B': 5.0, 'Mo': 1.8}",5.7,5.7,0.0,1,Al0.2 B5 Mo1.8
312,[5364],Sr1.2Ba0.8Y1Cu2.8Al0.2O7.19,Sr1.2Ba0.8Y1Cu2.8Al0.2O7.19,"{'Al': 0.2, 'Ba': 0.8, 'Cu': 2.8, 'O': 7.19, 'Sr': 1.2, 'Y': 1.0}",16.0,16.0,0.0,1,Sr1.2 Ba0.8 Y1 Cu2.8 Al0.2 O7.19
313,[5363],Sr1Ba1Y1Cu2.8Al0.2O7.15,Sr1Ba1Y1Cu2.8Al0.2O7.15,"{'Al': 0.2, 'Ba': 1.0, 'Cu': 2.8, 'O': 7.15, 'Sr': 1.0, 'Y': 1.0}",20.0,20.0,0.0,1,Sr1 Ba1 Y1 Cu2.8 Al0.2 O7.15
314,[5361],Sr0.7Ba1.3Y1Cu2.8Al0.2O7.03,Sr0.7Ba1.3Y1Cu2.8Al0.2O7.03,"{'Al': 0.2, 'Ba': 1.3, 'Cu': 2.8, 'O': 7.03, 'Sr': 0.7000000000000001, 'Y': 1.0}",12.0,12.0,0.0,1,Sr0.7 Ba1.3 Y1 Cu2.8 Al0.2 O7.03
315,[5362],Sr0.7Ba1.3Y1Cu2.8Al0.2O7.11,Sr0.7Ba1.3Y1Cu2.8Al0.2O7.11,"{'Al': 0.2, 'Ba': 1.3, 'Cu': 2.8, 'O': 7.11, 'Sr': 0.7000000000000001, 'Y': 1.0}",20.0,20.0,0.0,1,Sr0.7 Ba1.3 Y1 Cu2.8 Al0.2 O7.11
316,[2522],Y0.8Ca0.2Ba2Cu2.8Al0.2O6.88,Y0.8Ca0.2Ba2Cu2.8Al0.2O6.88,"{'Al': 0.2, 'Ba': 2.0, 'Ca': 0.2, 'Cu': 2.8, 'O': 6.88, 'Y': 0.8}",89.1,89.1,0.0,1,Y0.8 Ca0.2 Ba2 Cu2.8 Al0.2 O6.88
317,[229],Y1Ba2Cu2.8Al0.2O6.91,Y1Ba2Cu2.8Al0.2O6.91,"{'Al': 0.2, 'Ba': 2.0, 'Cu': 2.8, 'O': 6.91, 'Y': 1.0}",85.0,85.0,0.0,1,Y1 Ba2 Cu2.8 Al0.2 O6.91
318,[17533],Ca1Al0.2Ga0.8Si1,Ca1Al0.2Ga0.8Si1,"{'Al': 0.2, 'Ca': 1.0, 'Ga': 0.8, 'Si': 1.0}",3.24,3.24,0.0,1,Ca1 Al0.2 Ga0.8 Si1
319,"[15942, 15950, 15951, 15953, 15954, 15964]",Nb0.75Al0.2Ge0.05,Nb0.75Al0.2Ge0.05,"{'Al': 0.2, 'Ge': 0.05, 'Nb': 0.75}",20.0,18.05,1.7670597047,6,Nb0.75 Al0.2 Ge0.05
320,[17628],V0.65Ge0.15Al0.2,V0.65Ge0.15Al0.2,"{'Al': 0.2, 'Ge': 0.15, 'V': 0.65}",5.5,5.5,0.0,1,V0.65 Ge0.15 Al0.2
321,[19168],V3Ge0.8Al0.2,V3Ge0.8Al0.2,"{'Al': 0.2, 'Ge': 0.8, 'V': 3.0}",11.02,11.02,0.0,1,V3 Ge0.8 Al0.2
322,[12352],Al0.2La0.8,Al0.2La0.8,"{'Al': 0.2, 'La': 0.8}",4.43,4.43,0.0,1,Al0.2 La0.8
323,[15969],Nb0.75Al0.2Si0.05,Nb0.75Al0.2Si0.05,"{'Al': 0.2, 'Nb': 0.75, 'Si': 0.05}",15.4,15.4,0.0,1,Nb0.75 Al0.2 Si0.05
324,"[14790, 17693, 18047]",Nb3Sn0.8Al0.2,Nb3Sn0.8Al0.2,"{'Al': 0.2, 'Nb': 3.0, 'Sn': 0.8}",16.9,16.8333333333,0.0471404521,3,Nb3 Sn0.8 Al0.2
325,"[12890, 14709]",Al0.2Si0.8V3,Al0.2Si0.8V3,"{'Al': 0.2, 'Si': 0.8, 'V': 3.0}",15.7,14.85,0.85,2,Al0.2 Si0.8 V3
326,[11643],Mg0.79Al0.21B2,Mg0.79Al0.21B2,"{'Al': 0.21, 'B': 2.0, 'Mg': 0.79}",27.1,27.1,0.0,1,Mg0.79 Al0.21 B2
327,"[15952, 15957]",Nb0.75Al0.21Ge0.04,Nb0.75Al0.21Ge0.04,"{'Al': 0.21, 'Ge': 0.04, 'Nb': 0.75}",20.0,19.85,0.15,2,Nb0.75 Al0.21 Ge0.04
328,[12880],Al0.215Nb0.785,Al0.215Nb0.785,"{'Al': 0.215, 'Nb': 0.785}",17.97,17.97,0.0,1,Al0.215 Nb0.785
329,[12353],Al0.22La0.78,Al0.22La0.78,"{'Al': 0.22, 'La': 0.78}",4.3,4.3,0.0,1,Al0.22 La0.78
330,[12872],Al0.22Nb0.75Si0.3,Al0.22Nb0.75Si0.3,"{'Al': 0.22, 'Nb': 0.75, 'Si': 0.30000000000000004}",19.2,19.2,0.0,1,Al0.22 Nb0.75 Si0.3
331,[11812],Mg0.55Al0.225Li0.225B2,Mg0.55Al0.225Li0.225B2,"{'Al': 0.225, 'B': 2.0, 'Li': 0.225, 'Mg': 0.55}",25.6,25.6,0.0,1,Mg0.55 Al0.225 Li0.225 B2
332,[15939],Nb0.75Al0.225Ga0.025,Nb0.75Al0.225Ga0.025,"{'Al': 0.225, 'Ga': 0.025, 'Nb': 0.75}",19.1,19.1,0.0,1,Nb0.75 Al0.225 Ga0.025
333,[15963],Nb0.75Al0.225Ge0.025,Nb0.75Al0.225Ge0.025,"{'Al': 0.225, 'Ge': 0.025, 'Nb': 0.75}",17.9,17.9,0.0,1,Nb0.75 Al0.225 Ge0.025
334,[17625],V0.75Ge0.025Al0.225,V0.75Ge0.025Al0.225,"{'Al': 0.225, 'Ge': 0.025, 'V': 0.75}",11.2,11.2,0.0,1,V0.75 Ge0.025 Al0.225
335,[15968],Nb0.75Al0.225Si0.025,Nb0.75Al0.225Si0.025,"{'Al': 0.225, 'Nb': 0.75, 'Si': 0.025}",16.4,16.4,0.0,1,Nb0.75 Al0.225 Si0.025
336,[17606],V0.75Si0.025Al0.225,V0.75Si0.025Al0.225,"{'Al': 0.225, 'Si': 0.025, 'V': 0.75}",9.8,9.8,0.0,1,V0.75 Si0.025 Al0.225
337,[17635],V0.736Sb0.037Al0.227,V0.736Sb0.037Al0.227,"{'Al': 0.227, 'Sb': 0.037, 'V': 0.736}",6.4,6.4,0.0,1,V0.736 Sb0.037 Al0.227
338,[15956],Nb0.75Al0.23Ge0.02,Nb0.75Al0.23Ge0.02,"{'Al': 0.23, 'Ge': 0.02, 'Nb': 0.75}",19.2,19.2,0.0,1,Nb0.75 Al0.23 Ge0.02
339,[12886],Al0.23Nb0.75Zr0.013,Al0.23Nb0.75Zr0.013,"{'Al': 0.23, 'Nb': 0.75, 'Zr': 0.013000000000000001}",18.3,18.3,0.0,1,Al0.23 Nb0.75 Zr0.013
340,[17612],V0.63Si0.14Al0.23,V0.63Si0.14Al0.23,"{'Al': 0.23, 'Si': 0.14, 'V': 0.63}",9.7,9.7,0.0,1,V0.63 Si0.14 Al0.23
341,[15791],Nb0.747Al0.239Si0.014,Nb0.747Al0.239Si0.014,"{'Al': 0.23900000000000002, 'Nb': 0.747, 'Si': 0.014}",18.0,18.0,0.0,1,Nb0.747 Al0.239 Si0.014
342,[741],Y1Ba2Cu2.76Al0.24O7-Z,Y1Ba2Cu2.76Al0.24O7,"{'Al': 0.24, 'Ba': 2.0, 'Cu': 2.76, 'O': 7.0, 'Y': 1.0}",72.1,72.1,0.0,1,Y1 Ba2 Cu2.76 Al0.24 O7
343,[16089],Nb3.2Al0.24Ge0.4,Nb3.2Al0.24Ge0.4,"{'Al': 0.24, 'Ge': 0.4, 'Nb': 3.2}",10.2,10.2,0.0,1,Nb3.2 Al0.24 Ge0.4
344,"[15761, 15762, 15763, 15764]",Al0.24Nb0.76,Al0.24Nb0.76,"{'Al': 0.24, 'Nb': 0.76}",18.7,11.65,6.2854991846,4,Al0.24 Nb0.76
345,[14708],V3Si0.76Al0.24,V3Si0.76Al0.24,"{'Al': 0.24, 'Si': 0.76, 'V': 3.0}",11.2,11.2,0.0,1,V3 Si0.76 Al0.24
346,[15790],Al0.245Nb0.725,Al0.245Nb0.725,"{'Al': 0.245, 'Nb': 0.725}",18.4,18.4,0.0,1,Al0.245 Nb0.725
347,"[16342, 16597]",Mg0.75Al0.25B2,Mg0.75Al0.25B2,"{'Al': 0.25, 'B': 2.0, 'Mg': 0.75}",32.4,30.2,2.2,2,Mg0.75 Al0.25 B2
348,[2523],Y0.75Ca0.25Ba2Cu2.75Al0.25O6.86,Y0.75Ca0.25Ba2Cu2.75Al0.25O6.86,"{'Al': 0.25, 'Ba': 2.0, 'Ca': 0.25, 'Cu': 2.75, 'O': 6.86, 'Y': 0.75}",88.2,88.2,0.0,1,Y0.75 Ca0.25 Ba2 Cu2.75 Al0.25 O6.86
349,[10701],Y1Ba2Cu2.75Al0.25O7-z,Y1Ba2Cu2.75Al0.25O7,"{'Al': 0.25, 'Ba': 2.0, 'Cu': 2.75, 'O': 7.0, 'Y': 1.0}",80.8,80.8,0.0,1,Y1 Ba2 Cu2.75 Al0.25 O7
350,[21568],Al0.25Fe0.75Se0.85,Al0.25Fe0.75Se0.85,"{'Al': 0.25, 'Fe': 0.75, 'Se': 0.85}",8.5,8.5,0.0,1,Al0.25 Fe0.75 Se0.85
351,[17626],V0.65Ge0.1Al0.25,V0.65Ge0.1Al0.25,"{'Al': 0.25, 'Ge': 0.1, 'V': 0.65}",7.0,7.0,0.0,1,V0.65 Ge0.1 Al0.25
352,[12354],Al0.25La0.75,Al0.25La0.75,"{'Al': 0.25, 'La': 0.75}",3.98,3.98,0.0,1,Al0.25 La0.75
353,[15971],Nb0.7275Zr0.0225Al0.25,Nb0.7275Zr0.0225Al0.25,"{'Al': 0.25, 'Nb': 0.7275, 'Zr': 0.022500000000000003}",14.6,14.6,0.0,1,Nb0.7275 Zr0.0225 Al0.25
354,[15972],Nb0.7425Zr0.0075Al0.25,Nb0.7425Zr0.0075Al0.25,"{'Al': 0.25, 'Nb': 0.7425, 'Zr': 0.007500000000000001}",17.4,17.4,0.0,1,Nb0.7425 Zr0.0075 Al0.25
355,"[14519, 15955, 15967]",Al0.25Nb0.75,Al0.25Nb0.75,"{'Al': 0.25, 'Nb': 0.75}",18.6,14.2333333333,5.1512673737,3,Al0.25 Nb0.75
356,[17608],V0.65Si0.1Al0.25,V0.65Si0.1Al0.25,"{'Al': 0.25, 'Si': 0.1, 'V': 0.65}",9.9,9.9,0.0,1,V0.65 Si0.1 Al0.25
357,[17598],Al0.25V0.75,Al0.25V0.75,"{'Al': 0.25, 'V': 0.75}",16.9,16.9,0.0,1,Al0.25 V0.75
358,[15966],Nb0.73Al0.255Si0.015,Nb0.73Al0.255Si0.015,"{'Al': 0.255, 'Nb': 0.73, 'Si': 0.015}",18.7,18.7,0.0,1,Nb0.73 Al0.255 Si0.015
359,[12355],Al0.27La0.73,Al0.27La0.73,"{'Al': 0.27, 'La': 0.73}",3.8200000000000003,3.8200000000000003,0.0,1,Al0.27 La0.73
360,[12857],Al0.28Mg0.18,Al0.28Mg0.18,"{'Al': 0.28, 'Mg': 0.18}",1.63,1.63,0.0,1,Al0.28 Mg0.18
361,[16598],Mg0.71Al0.29B2,Mg0.71Al0.29B2,"{'Al': 0.29, 'B': 2.0, 'Mg': 0.71}",24.0,24.0,0.0,1,Mg0.71 Al0.29 B2
362,[10702],Y0.9Eu0.13Ba1.97Cu2.87Al0.29O7-z,Y0.9Eu0.13Ba1.97Cu2.87Al0.29O7,"{'Al': 0.29, 'Ba': 1.97, 'Cu': 2.87, 'Eu': 0.13, 'O': 7.0, 'Y': 0.9}",72.6,72.6,0.0,1,Y0.9 Eu0.13 Ba1.97 Cu2.87 Al0.29 O7
363,"[12527, 12565, 16343, 17171, 17296, 17315]",Mg0.7Al0.3B2,Mg0.7Al0.3B2,"{'Al': 0.30000000000000004, 'B': 2.0, 'Mg': 0.7000000000000001}",27.1,19.9666666667,6.5078584974,6,Mg0.7 Al0.3 B2
364,[10704],Y0.74Eu0.35Ba1.91Cu2.81Al0.3O7-z,Y0.74Eu0.35Ba1.91Cu2.81Al0.3O7,"{'Al': 0.30000000000000004, 'Ba': 1.9100000000000001, 'Cu': 2.81, 'Eu': 0.35000000000000003, 'O': 7.0, 'Y': 0.74}",59.9,59.9,0.0,1,Y0.74 Eu0.35 Ba1.91 Cu2.81 Al0.3 O7
365,[230],Y1Ba2Cu2.7Al0.3O6.99,Y1Ba2Cu2.7Al0.3O6.99,"{'Al': 0.30000000000000004, 'Ba': 2.0, 'Cu': 2.7, 'O': 6.99, 'Y': 1.0}",73.0,73.0,0.0,1,Y1 Ba2 Cu2.7 Al0.3 O6.99
366,[742],Y1Ba2Cu2.7Al0.3O7-Z,Y1Ba2Cu2.7Al0.3O7,"{'Al': 0.30000000000000004, 'Ba': 2.0, 'Cu': 2.7, 'O': 7.0, 'Y': 1.0}",59.4,59.4,0.0,1,Y1 Ba2 Cu2.7 Al0.3 O7
367,[12823],Al0.3Be0.7,Al0.3Be0.7,"{'Al': 0.30000000000000004, 'Be': 0.7000000000000001}",6.5,6.5,0.0,1,Al0.3 Be0.7
368,[17532],Ca1Al0.3Ga0.7Si1,Ca1Al0.3Ga0.7Si1,"{'Al': 0.30000000000000004, 'Ca': 1.0, 'Ga': 0.7000000000000001, 'Si': 1.0}",3.0,3.0,0.0,1,Ca1 Al0.3 Ga0.7 Si1
369,[12845],Al0.3Ga0.7V3,Al0.3Ga0.7V3,"{'Al': 0.30000000000000004, 'Ga': 0.7000000000000001, 'V': 3.0}",13.9,13.9,0.0,1,Al0.3 Ga0.7 V3
370,[16101],Nb3Al0.3Ge0.7,Nb3Al0.3Ge0.7,"{'Al': 0.30000000000000004, 'Ge': 0.7000000000000001, 'Nb': 3.0}",9.1,9.1,0.0,1,Nb3 Al0.3 Ge0.7
371,[19169],V3Ge0.7Al0.3,V3Ge0.7Al0.3,"{'Al': 0.30000000000000004, 'Ge': 0.7000000000000001, 'V': 3.0}",11.17,11.17,0.0,1,V3 Ge0.7 Al0.3
372,[19829],La3In0.7Al0.3,La3In0.7Al0.3,"{'Al': 0.30000000000000004, 'In': 0.7000000000000001, 'La': 3.0}",9.42,9.42,0.0,1,La3 In0.7 Al0.3
373,"[17694, 18048]",Nb3Sn0.7Al0.3,Nb3Sn0.7Al0.3,"{'Al': 0.30000000000000004, 'Nb': 3.0, 'Sn': 0.7000000000000001}",15.8,15.775,0.025,2,Nb3 Sn0.7 Al0.3
374,[10705],Y0.68Eu0.39Ba1.93Cu2.73Al0.32O7-z,Y0.68Eu0.39Ba1.93Cu2.73Al0.32O7,"{'Al': 0.32, 'Ba': 1.9300000000000002, 'Cu': 2.73, 'Eu': 0.39, 'O': 7.0, 'Y': 0.68}",47.5,47.5,0.0,1,Y0.68 Eu0.39 Ba1.93 Cu2.73 Al0.32 O7
375,[10703],Y0.88Eu0.17Ba1.95Cu2.82Al0.32O7-z,Y0.88Eu0.17Ba1.95Cu2.82Al0.32O7,"{'Al': 0.32, 'Ba': 1.9500000000000002, 'Cu': 2.8200000000000003, 'Eu': 0.17, 'O': 7.0, 'Y': 0.88}",67.5,67.5,0.0,1,Y0.88 Eu0.17 Ba1.95 Cu2.82 Al0.32 O7
376,[12356],Al0.32La0.68,Al0.32La0.68,"{'Al': 0.32, 'La': 0.68}",3.23,3.23,0.0,1,Al0.32 La0.68
377,[17699],Nb3Ga0.67Al0.33,Nb3Ga0.67Al0.33,"{'Al': 0.33, 'Ga': 0.67, 'Nb': 3.0}",18.1,18.1,0.0,1,Nb3 Ga0.67 Al0.33
378,[12842],Al0.33Ge0.67,Al0.33Ge0.67,"{'Al': 0.33, 'Ge': 0.67}",1.75,1.75,0.0,1,Al0.33 Ge0.67
379,[12863],Al0.33Nb0.67,Al0.33Nb0.67,"{'Al': 0.33, 'Nb': 0.67}",13.5,13.5,0.0,1,Al0.33 Nb0.67
380,[18055],Nb3Ga0.65Al0.35,Nb3Ga0.65Al0.35,"{'Al': 0.35000000000000003, 'Ga': 0.65, 'Nb': 3.0}",18.1,18.1,0.0,1,Nb3 Ga0.65 Al0.35
381,[17627],V0.55Ge0.1Al0.35,V0.55Ge0.1Al0.35,"{'Al': 0.35000000000000003, 'Ge': 0.1, 'V': 0.55}",5.4,5.4,0.0,1,V0.55 Ge0.1 Al0.35
382,[14813],Nb3Al0.39Ge0.61,Nb3Al0.39Ge0.61,"{'Al': 0.39, 'Ge': 0.61, 'Nb': 3.0}",7.3,7.3,0.0,1,Nb3 Al0.39 Ge0.61
383,[12854],Al0.39Mg0.61,Al0.39Mg0.61,"{'Al': 0.39, 'Mg': 0.61}",1.5,1.5,0.0,1,Al0.39 Mg0.61
384,[14789],Nb3Sn0.61Al0.39,Nb3Sn0.61Al0.39,"{'Al': 0.39, 'Nb': 3.0, 'Sn': 0.61}",14.1,14.1,0.0,1,Nb3 Sn0.61 Al0.39
385,"[16344, 16599, 17172, 17297, 17316]",Mg0.6Al0.4B2,Mg0.6Al0.4B2,"{'Al': 0.4, 'B': 2.0, 'Mg': 0.6000000000000001}",14.6,11.6,2.4915858404,5,Mg0.6 Al0.4 B2
386,[231],Y1Ba2Cu2.6Al0.4O7,Y1Ba2Cu2.6Al0.4O7,"{'Al': 0.4, 'Ba': 2.0, 'Cu': 2.6, 'O': 7.0, 'Y': 1.0}",42.0,42.0,0.0,1,Y1 Ba2 Cu2.6 Al0.4 O7
387,[17531],Ca1Al0.4Ga0.6Si1,Ca1Al0.4Ga0.6Si1,"{'Al': 0.4, 'Ca': 1.0, 'Ga': 0.6000000000000001, 'Si': 1.0}",3.45,3.45,0.0,1,Ca1 Al0.4 Ga0.6 Si1
388,"[14788, 17695, 18049]",Nb3Sn0.6Al0.4,Nb3Sn0.6Al0.4,"{'Al': 0.4, 'Nb': 3.0, 'Sn': 0.6000000000000001}",15.7,15.5,0.28284271250000004,3,Nb3 Sn0.6 Al0.4
389,[14707],V3Si0.6Al0.4,V3Si0.6Al0.4,"{'Al': 0.4, 'Si': 0.6000000000000001, 'V': 3.0}",10.1,10.1,0.0,1,V3 Si0.6 Al0.4
390,[10706],Y0.52Eu0.58Ba1.9Cu2.69Al0.42O7-z,Y0.52Eu0.58Ba1.9Cu2.69Al0.42O7,"{'Al': 0.42, 'Ba': 1.9, 'Cu': 2.69, 'Eu': 0.58, 'O': 7.0, 'Y': 0.52}",42.4,42.4,0.0,1,Y0.52 Eu0.58 Ba1.9 Cu2.69 Al0.42 O7
391,[455],Y1Ba2Cu2.52Al0.48O6.74,Y1Ba2Cu2.52Al0.48O6.74,"{'Al': 0.48, 'Ba': 2.0, 'Cu': 2.52, 'O': 6.74, 'Y': 1.0}",68.0,68.0,0.0,1,Y1 Ba2 Cu2.52 Al0.48 O6.74
392,[16600],Mg0.5Al0.5B2,Mg0.5Al0.5B2,"{'Al': 0.5, 'B': 2.0, 'Mg': 0.5}",12.9,12.9,0.0,1,Mg0.5 Al0.5 B2
393,[17530],Ca1Al0.5Ga0.5Si1,Ca1Al0.5Ga0.5Si1,"{'Al': 0.5, 'Ca': 1.0, 'Ga': 0.5, 'Si': 1.0}",3.73,3.73,0.0,1,Ca1 Al0.5 Ga0.5 Si1
394,[3325],Eu2.17Ce0.5Sr1.33Cu2.5Al0.5O9.02,Eu2.17Ce0.5Sr1.33Cu2.5Al0.5O9.02,"{'Al': 0.5, 'Ce': 0.5, 'Cu': 2.5, 'Eu': 2.17, 'O': 9.02, 'Sr': 1.33}",16.4,16.4,0.0,1,Eu2.17 Ce0.5 Sr1.33 Cu2.5 Al0.5 O9.02
395,"[12828, 15857, 17673, 17700, 18056]",Al0.5Ga0.5Nb3,Al0.5Ga0.5Nb3,"{'Al': 0.5, 'Ga': 0.5, 'Nb': 3.0}",19.0,18.7,0.2449489743,5,Al0.5 Ga0.5 Nb3
396,[12827],Al0.5Ga0.5V3,Al0.5Ga0.5V3,"{'Al': 0.5, 'Ga': 0.5, 'V': 3.0}",12.9,12.9,0.0,1,Al0.5 Ga0.5 V3
397,[14871],Al0.5Ge0.5Nb1,Al0.5Ge0.5Nb1,"{'Al': 0.5, 'Ge': 0.5, 'Nb': 1.0}",12.6,12.6,0.0,1,Al0.5 Ge0.5 Nb1
398,"[14814, 16100, 17669]",Nb3Al0.5Ge0.5,Nb3Al0.5Ge0.5,"{'Al': 0.5, 'Ge': 0.5, 'Nb': 3.0}",17.4,15.3,2.0049937656,3,Nb3 Al0.5 Ge0.5
399,[12866],Al0.5Mo5S6Sn1,Al0.5Mo5S6Sn1,"{'Al': 0.5, 'Mo': 5.0, 'S': 6.0, 'Sn': 1.0}",14.2,14.2,0.0,1,Al0.5 Mo5 S6 Sn1
400,"[12871, 14787, 17696, 18037, 18050]",Al0.5Nb3Sn0.5,Al0.5Nb3Sn0.5,"{'Al': 0.5, 'Nb': 3.0, 'Sn': 0.5}",16.3,16.06,0.1624807681,5,Al0.5 Nb3 Sn0.5
401,[17680],Nb3Al0.5Zn0.5,Nb3Al0.5Zn0.5,"{'Al': 0.5, 'Nb': 3.0, 'Zn': 0.5}",16.0,16.0,0.0,1,Nb3 Al0.5 Zn0.5
402,[14815],Nb3Al0.55Ge0.45,Nb3Al0.55Ge0.45,"{'Al': 0.55, 'Ge': 0.45, 'Nb': 3.0}",11.7,11.7,0.0,1,Nb3 Al0.55 Ge0.45
403,[16088],Nb3.07Al0.5859Ge0.279,Nb3.07Al0.5859Ge0.279,"{'Al': 0.5859, 'Ge': 0.279, 'Nb': 3.07}",17.4,17.4,0.0,1,Nb3.07 Al0.5859 Ge0.279
404,"[16601, 17173]",Mg0.4Al0.6B2,Mg0.4Al0.6B2,"{'Al': 0.6000000000000001, 'B': 2.0, 'Mg': 0.4}",12.0,8.925,3.075,2,Mg0.4 Al0.6 B2
405,[17529],Ca1Al0.6Ga0.4Si1,Ca1Al0.6Ga0.4Si1,"{'Al': 0.6000000000000001, 'Ca': 1.0, 'Ga': 0.4, 'Si': 1.0}",4.51,4.51,0.0,1,Ca1 Al0.6 Ga0.4 Si1
406,[17668],Nb3Al0.6Ge0.4,Nb3Al0.6Ge0.4,"{'Al': 0.6000000000000001, 'Ge': 0.4, 'Nb': 3.0}",19.7,19.7,0.0,1,Nb3 Al0.6 Ge0.4
407,[12855],Al0.6Mg0.4,Al0.6Mg0.4,"{'Al': 0.6000000000000001, 'Mg': 0.4}",1.7000000000000002,1.7000000000000002,0.0,1,Al0.6 Mg0.4
408,[24137],Mg1.4Al0.6Si1,Mg1.4Al0.6Si1,"{'Al': 0.6000000000000001, 'Mg': 1.4, 'Si': 1.0}",6.0,6.0,0.0,1,Mg1.4 Al0.6 Si1
409,[14786],Nb3Sn0.4Al0.6,Nb3Sn0.4Al0.6,"{'Al': 0.6000000000000001, 'Nb': 3.0, 'Sn': 0.4}",13.6,13.6,0.0,1,Nb3 Sn0.4 Al0.6
410,[12856],Al0.61Mg0.39,Al0.61Mg0.39,"{'Al': 0.61, 'Mg': 0.39}",0.85,0.85,0.0,1,Al0.61 Mg0.39
411,[14816],Nb3Al0.62Ge0.38,Nb3Al0.62Ge0.38,"{'Al': 0.62, 'Ge': 0.38, 'Nb': 3.0}",17.2,17.2,0.0,1,Nb3 Al0.62 Ge0.38
412,[12852],Al0.66Ge0.22Nb3.1,Al0.66Ge0.22Nb3.1,"{'Al': 0.66, 'Ge': 0.22, 'Nb': 3.1}",20.29,20.29,0.0,1,Al0.66 Ge0.22 Nb3.1
413,[16099],Nb3Al0.66Ge0.34,Nb3Al0.66Ge0.34,"{'Al': 0.66, 'Ge': 0.34, 'Nb': 3.0}",20.4,20.4,0.0,1,Nb3 Al0.66 Ge0.34
414,"[17672, 18035]",Nb3Al0.67Ga0.33,Nb3Al0.67Ga0.33,"{'Al': 0.67, 'Ga': 0.33, 'Nb': 3.0}",18.7,18.7,0.0,2,Nb3 Al0.67 Ga0.33
415,[17676],Nb3Al0.67In0.33,Nb3Al0.67In0.33,"{'Al': 0.67, 'In': 0.33, 'Nb': 3.0}",16.0,16.0,0.0,1,Nb3 Al0.67 In0.33
416,[17679],Nb3Al0.67Zn0.33,Nb3Al0.67Zn0.33,"{'Al': 0.67, 'Nb': 3.0, 'Zn': 0.33}",17.3,17.3,0.0,1,Nb3 Al0.67 Zn0.33
417,[16602],Mg0.31Al0.69B2,Mg0.31Al0.69B2,"{'Al': 0.6900000000000001, 'B': 2.0, 'Mg': 0.31}",11.1,11.1,0.0,1,Mg0.31 Al0.69 B2
418,[15866],Nb3Al0.7Be0.3,Nb3Al0.7Be0.3,"{'Al': 0.7000000000000001, 'Be': 0.30000000000000004, 'Nb': 3.0}",14.0,14.0,0.0,1,Nb3 Al0.7 Be0.3
419,[17528],Ca1Al0.7Ga0.3Si1,Ca1Al0.7Ga0.3Si1,"{'Al': 0.7000000000000001, 'Ca': 1.0, 'Ga': 0.30000000000000004, 'Si': 1.0}",4.78,4.78,0.0,1,Ca1 Al0.7 Ga0.3 Si1
420,[17667],Nb3Al0.7Ge0.3,Nb3Al0.7Ge0.3,"{'Al': 0.7000000000000001, 'Ge': 0.30000000000000004, 'Nb': 3.0}",19.9,19.9,0.0,1,Nb3 Al0.7 Ge0.3
421,[16098],Nb3Al0.71Ge0.29,Nb3Al0.71Ge0.29,"{'Al': 0.71, 'Ge': 0.29, 'Nb': 3.0}",20.7,20.7,0.0,1,Nb3 Al0.71 Ge0.29
422,[16087],Nb3.05Al0.7125Ge0.19,Nb3.05Al0.7125Ge0.19,"{'Al': 0.7125, 'Ge': 0.19, 'Nb': 3.05}",17.9,17.9,0.0,1,Nb3.05 Al0.7125 Ge0.19
423,[18034],Nb3Al0.72Ge0.28,Nb3Al0.72Ge0.28,"{'Al': 0.72, 'Ge': 0.28, 'Nb': 3.0}",19.9,19.9,0.0,1,Nb3 Al0.72 Ge0.28
424,[16090],Al0.72Nb3.28,Al0.72Nb3.28,"{'Al': 0.72, 'Nb': 3.2800000000000002}",6.2,6.2,0.0,1,Al0.72 Nb3.28
425,[24139],Ca1Al0.74Si1.26,Ca1Al0.74Si1.26,"{'Al': 0.74, 'Ca': 1.0, 'Si': 1.26}",2.46,2.46,0.0,1,Ca1 Al0.74 Si1.26
426,[15798],Nb3Al0.75Ga0.3,Nb3Al0.75Ga0.3,"{'Al': 0.75, 'Ga': 0.30000000000000004, 'Nb': 3.0}",19.1,19.1,0.0,1,Nb3 Al0.75 Ga0.3
427,[12851],Al0.75Ge0.25Nb0.003,Al0.75Ge0.25Nb0.003,"{'Al': 0.75, 'Ge': 0.25, 'Nb': 0.003}",20.7,20.7,0.0,1,Al0.75 Ge0.25 Nb0.003
428,"[12853, 15797]",Al0.75Ge0.25Nb3,Al0.75Ge0.25Nb3,"{'Al': 0.75, 'Ge': 0.25, 'Nb': 3.0}",20.2,20.0,0.2,2,Al0.75 Ge0.25 Nb3
429,[12850],Al0.75Ge0.25Nb3.8,Al0.75Ge0.25Nb3.8,"{'Al': 0.75, 'Ge': 0.25, 'Nb': 3.8}",20.34,20.34,0.0,1,Al0.75 Ge0.25 Nb3.8
430,[16091],Nb2.96Al0.7592Ge0.3224,Nb2.96Al0.7592Ge0.3224,"{'Al': 0.7592, 'Ge': 0.3224, 'Nb': 2.96}",19.8,19.8,0.0,1,Nb2.96 Al0.7592 Ge0.3224
431,[16097],Nb3Al0.76Ge0.24,Nb3Al0.76Ge0.24,"{'Al': 0.76, 'Ge': 0.24, 'Nb': 3.0}",20.4,20.4,0.0,1,Nb3 Al0.76 Ge0.24
432,[16603],Mg0.23Al0.77B2,Mg0.23Al0.77B2,"{'Al': 0.77, 'B': 2.0, 'Mg': 0.23}",5.1,5.1,0.0,1,Mg0.23 Al0.77 B2
433,[12838],Al0.77Ge0.23Nb3,Al0.77Ge0.23Nb3,"{'Al': 0.77, 'Ge': 0.23, 'Nb': 3.0}",20.75,20.75,0.0,1,Al0.77 Ge0.23 Nb3
434,[15861],Nb3Al0.8B0.2,Nb3Al0.8B0.2,"{'Al': 0.8, 'B': 0.2, 'Nb': 3.0}",17.8,17.8,0.0,1,Nb3 Al0.8 B0.2
435,[15865],Nb3Al0.8Be0.2,Nb3Al0.8Be0.2,"{'Al': 0.8, 'Be': 0.2, 'Nb': 3.0}",17.0,17.0,0.0,1,Nb3 Al0.8 Be0.2
436,[17527],Ca1Al0.8Ga0.2Si1,Ca1Al0.8Ga0.2Si1,"{'Al': 0.8, 'Ca': 1.0, 'Ga': 0.2, 'Si': 1.0}",5.6,5.6,0.0,1,Ca1 Al0.8 Ga0.2 Si1
437,[17038],Ca1Al0.8Si1.2,Ca1Al0.8Si1.2,"{'Al': 0.8, 'Ca': 1.0, 'Si': 1.2}",4.05,4.05,0.0,1,Ca1 Al0.8 Si1.2
438,[17671],Nb3Al0.8Ga0.2,Nb3Al0.8Ga0.2,"{'Al': 0.8, 'Ga': 0.2, 'Nb': 3.0}",18.54,18.54,0.0,1,Nb3 Al0.8 Ga0.2
439,"[12835, 14870, 17666]",Al0.8Ge0.2Nb3,Al0.8Ge0.2Nb3,"{'Al': 0.8, 'Ge': 0.2, 'Nb': 3.0}",20.7,20.1833333333,0.3793268892,3,Al0.8 Ge0.2 Nb3
440,"[17675, 18036]",Nb3Al0.8In0.2,Nb3Al0.8In0.2,"{'Al': 0.8, 'In': 0.2, 'Nb': 3.0}",18.1,18.1,0.0,2,Nb3 Al0.8 In0.2
441,[14785],Nb3Sn0.2Al0.8,Nb3Sn0.2Al0.8,"{'Al': 0.8, 'Nb': 3.0, 'Sn': 0.2}",14.6,14.6,0.0,1,Nb3 Sn0.2 Al0.8
442,[17678],Nb3Al0.8Zn0.2,Nb3Al0.8Zn0.2,"{'Al': 0.8, 'Nb': 3.0, 'Zn': 0.2}",17.7,17.7,0.0,1,Nb3 Al0.8 Zn0.2
443,[14796],Nb3Al0.81Ge0.19,Nb3Al0.81Ge0.19,"{'Al': 0.81, 'Ge': 0.19, 'Nb': 3.0}",17.6,17.6,0.0,1,Nb3 Al0.81 Ge0.19
444,[16096],Nb3Al0.83Ge0.17,Nb3Al0.83Ge0.17,"{'Al': 0.8300000000000001, 'Ge': 0.17, 'Nb': 3.0}",19.6,19.6,0.0,1,Nb3 Al0.83 Ge0.17
445,[12814],Al0.9As0.05Ga0.05Nb3,Al0.9As0.05Ga0.05Nb3,"{'Al': 0.9, 'As': 0.05, 'Ga': 0.05, 'Nb': 3.0}",19.2,19.2,0.0,1,Al0.9 As0.05 Ga0.05 Nb3
446,[15860],Nb3Al0.9B0.1,Nb3Al0.9B0.1,"{'Al': 0.9, 'B': 0.1, 'Nb': 3.0}",19.8,19.8,0.0,1,Nb3 Al0.9 B0.1