,sc_id,supercon_formula,cleaned_formula,material_dict,highest_Tc,average_Tc,std_Tc,entry_count,composition
610,"[23047, 25612]",Ca4Al2Fe2As2O6,Ca4Al2Fe2As2O6,"{'Al': 2.0, 'As': 2.0, 'Ca': 4.0, 'Fe': 2.0, 'O': 6.0}",28.2,27.5,0.7000000000000001,2,Ca4 Al2 Fe2 As2 O6
611,[12813],Al2Au1,Al2Au1,"{'Al': 2.0, 'Au': 1.0}",0.095,0.095,0.0,1,Al2 Au1
612,[23811],Ba8Si44Al2,Ba8Si44Al2,"{'Al': 2.0, 'Ba': 8.0, 'Si': 44.0}",5.85,5.85,0.0,1,Ba8 Si44 Al2
613,"[11842, 12820, 14863, 14874, 15285, 21815, 21816, 23698]",Mo3Al2C1,Mo3Al2C1,"{'Al': 2.0, 'C': 1.0, 'Mo': 3.0}",10.0,9.4875,0.6152997237,8,Mo3 Al2 C1
614,[26110],W3Al2C1,W3Al2C1,"{'Al': 2.0, 'C': 1.0, 'W': 3.0}",7.5,7.5,0.0,1,W3 Al2 C1
615,"[12826, 14873, 18632]",Al2Ca1Si1,Al2Ca1Si1,"{'Al': 2.0, 'Ca': 1.0, 'Si': 1.0}",5.8,5.8,0.0,3,Al2 Ca1 Si1
616,[23050],Ca3Al2Fe2P2O5,Ca3Al2Fe2P2O5,"{'Al': 2.0, 'Ca': 3.0, 'Fe': 2.0, 'O': 5.0, 'P': 2.0}",16.6,16.6,0.0,1,Ca3 Al2 Fe2 P2 O5
617,[22411],Ca4Al2Fe2P2O5.8,Ca4Al2Fe2P2O5.8,"{'Al': 2.0, 'Ca': 4.0, 'Fe': 2.0, 'O': 5.8, 'P': 2.0}",17.0,17.0,0.0,1,Ca4 Al2 Fe2 P2 O5.8
618,"[23048, 25618]",Ca4Al2Fe2P2O6,Ca4Al2Fe2P2O6,"{'Al': 2.0, 'Ca': 4.0, 'Fe': 2.0, 'O': 6.0, 'P': 2.0}",17.1,16.85,0.25,2,Ca4 Al2 Fe2 P2 O6
619,"[20431, 21513]",Ce1Pd5Al2,Ce1Pd5Al2,"{'Al': 2.0, 'Ce': 1.0, 'Pd': 5.0}",0.9,0.735,0.165,2,Ce1 Pd5 Al2
620,[14630],Al2Cu1,Al2Cu1,"{'Al': 2.0, 'Cu': 1.0}",1.02,1.02,0.0,1,Al2 Cu1
621,[20325],La0.999Gd0.001Al2,La0.999Gd0.001Al2,"{'Al': 2.0, 'Gd': 0.001, 'La': 0.999}",2.7800000000000002,2.7800000000000002,0.0,1,La0.999 Gd0.001 Al2
622,"[12843, 20326]",Al2Gd0.002La0.998,Al2Gd0.002La0.998,"{'Al': 2.0, 'Gd': 0.002, 'La': 0.998}",2.45,2.42,0.03,2,Al2 Gd0.002 La0.998
623,[20327],La0.997Gd0.003Al2,La0.997Gd0.003Al2,"{'Al': 2.0, 'Gd': 0.003, 'La': 0.997}",1.8900000000000001,1.8900000000000001,0.0,1,La0.997 Gd0.003 Al2
624,[20328],La0.996Gd0.004Al2,La0.996Gd0.004Al2,"{'Al': 2.0, 'Gd': 0.004, 'La': 0.996}",1.38,1.38,0.0,1,La0.996 Gd0.004 Al2
625,[20329],La0.995Gd0.005Al2,La0.995Gd0.005Al2,"{'Al': 2.0, 'Gd': 0.005, 'La': 0.995}",0.932,0.932,0.0,1,La0.995 Gd0.005 Al2
626,[14861],Nb79.7Sn6.1Al2Ge12.2,Nb79.7Sn6.1Al2Ge12.2,"{'Al': 2.0, 'Ge': 12.2, 'Nb': 79.7, 'Sn': 6.1}",7.15,7.15,0.0,1,Nb79.7 Sn6.1 Al2 Ge12.2
627,[20338],La0.988Tb0.012Al2,La0.988Tb0.012Al2,"{'Al': 2.0, 'La': 0.988, 'Tb': 0.012}",0.9400000000000001,0.9400000000000001,0.0,1,La0.988 Tb0.012 Al2
628,[17638],La0.9911Tb0.0089Al2,La0.9911Tb0.0089Al2,"{'Al': 2.0, 'La': 0.9911000000000001, 'Tb': 0.0089}",1.425,1.425,0.0,1,La0.9911 Tb0.0089 Al2
629,[20337],La0.992Tb0.008Al2,La0.992Tb0.008Al2,"{'Al': 2.0, 'La': 0.992, 'Tb': 0.008}",1.6099999999999999,1.6099999999999999,0.0,1,La0.992 Tb0.008 Al2
630,[17637],La0.9941Tb0.0059Al2,La0.9941Tb0.0059Al2,"{'Al': 2.0, 'La': 0.9941000000000001, 'Tb': 0.0059}",1.996,1.996,0.0,1,La0.9941 Tb0.0059 Al2
631,[20336],La0.996Tb0.004Al2,La0.996Tb0.004Al2,"{'Al': 2.0, 'La': 0.996, 'Tb': 0.004}",2.4,2.4,0.0,1,La0.996 Tb0.004 Al2
632,[20335],La0.9985Tb0.0015Al2,La0.9985Tb0.0015Al2,"{'Al': 2.0, 'La': 0.9985, 'Tb': 0.0015}",2.9,2.9,0.0,1,La0.9985 Tb0.0015 Al2
633,"[12847, 12848, 17636, 19581, 20324, 20339, 21035]",Al2La1,Al2La1,"{'Al': 2.0, 'La': 1.0}",3.273,2.6798571429,1.0319675284,7,Al2 La1
634,[14883],Al2Mg2,Al2Mg2,"{'Al': 2.0, 'Mg': 2.0}",0.84,0.84,0.0,1,Al2 Mg2
635,"[12864, 14882]",Al2N1Nb3,Al2N1Nb3,"{'Al': 2.0, 'N': 1.0, 'Nb': 3.0}",1.3,1.3,0.0,2,Al2 N1 Nb3
636,"[12881, 14880]",Al2Pt1,Al2Pt1,"{'Al': 2.0, 'Pt': 1.0}",0.55,0.515,0.035,2,Al2 Pt1
637,[12910],Al2Zr1,Al2Zr1,"{'Al': 2.0, 'Zr': 1.0}",0.35000000000000003,0.35000000000000003,0.0,1,Al2 Zr1
638,[12833],Al2.06Cu1,Al2.06Cu1,"{'Al': 2.06, 'Cu': 1.0}",0.65,0.65,0.0,1,Al2.06 Cu1
639,[14841],Nb79.1Sn9.4Al2.1Ge9.4,Nb79.1Sn9.4Al2.1Ge9.4,"{'Al': 2.1, 'Ge': 9.4, 'Nb': 79.1, 'Sn': 9.4}",8.2,8.2,0.0,1,Nb79.1 Sn9.4 Al2.1 Ge9.4
640,[14846],Nb78.4Sn12.9Al2.2Ge6.5,Nb78.4Sn12.9Al2.2Ge6.5,"{'Al': 2.2, 'Ge': 6.5, 'Nb': 78.4, 'Sn': 12.9}",13.3,13.3,0.0,1,Nb78.4 Sn12.9 Al2.2 Ge6.5
641,[14827],Nb77.3Sn18.1Al2.3Ge2.3,Nb77.3Sn18.1Al2.3Ge2.3,"{'Al': 2.3, 'Ge': 2.3, 'Nb': 77.3, 'Sn': 18.1}",13.0,13.0,0.0,1,Nb77.3 Sn18.1 Al2.3 Ge2.3
642,[23318],Ca2Al2.39Si4.61,Ca2Al2.39Si4.61,"{'Al': 2.39, 'Ca': 2.0, 'Si': 4.61}",5.4,5.4,0.0,1,Ca2 Al2.39 Si4.61
643,[23317],Ca2Al2.73Si4.27,Ca2Al2.73Si4.27,"{'Al': 2.73, 'Ca': 2.0, 'Si': 4.27}",6.4,6.4,0.0,1,Ca2 Al2.73 Si4.27
644,[23812],Ba8Si43Al3,Ba8Si43Al3,"{'Al': 3.0, 'Ba': 8.0, 'Si': 43.0}",5.75,5.75,0.0,1,Ba8 Si43 Al3
645,[23316],Ca2Al3Si4,Ca2Al3Si4,"{'Al': 3.0, 'Ca': 2.0, 'Si': 4.0}",6.2,6.2,0.0,1,Ca2 Al3 Si4
646,[22099],La1Pd2Al3,La1Pd2Al3,"{'Al': 3.0, 'La': 1.0, 'Pd': 2.0}",0.85,0.85,0.0,1,La1 Pd2 Al3
647,"[12858, 20097]",Al3Mg2,Al3Mg2,"{'Al': 3.0, 'Mg': 2.0}",0.87,0.855,0.015,2,Al3 Mg2
648,[17664],Al3Nb3,Al3Nb3,"{'Al': 3.0, 'Nb': 3.0}",18.4,18.4,0.0,1,Al3 Nb3
649,[12883],Al3Os1,Al3Os1,"{'Al': 3.0, 'Os': 1.0}",5.9,5.9,0.0,1,Al3 Os1
650,[22084],Y1Pd2Al3,Y1Pd2Al3,"{'Al': 3.0, 'Pd': 2.0, 'Y': 1.0}",2.2,2.2,0.0,1,Y1 Pd2 Al3
651,[14656],Al3Tl1,Al3Tl1,"{'Al': 3.0, 'Tl': 1.0}",0.75,0.75,0.0,1,Al3 Tl1
652,"[12902, 19028]",Al3Yb1,Al3Yb1,"{'Al': 3.0, 'Yb': 1.0}",0.9400000000000001,0.9400000000000001,0.0,2,Al3 Yb1
653,[25158],Ba8Si42Al4,Ba8Si42Al4,"{'Al': 4.0, 'Ba': 8.0, 'Si': 42.0}",5.7,5.7,0.0,1,Ba8 Si42 Al4
654,[25025],Ba7.7Eu0.3Al5Si41,Ba7.7Eu0.3Al5Si41,"{'Al': 5.0, 'Ba': 7.7, 'Eu': 0.30000000000000004, 'Si': 41.0}",4.5,4.5,0.0,1,Ba7.7 Eu0.3 Al5 Si41
655,[25024],Ba7.8Eu0.2Al5Si41,Ba7.8Eu0.2Al5Si41,"{'Al': 5.0, 'Ba': 7.8, 'Eu': 0.2, 'Si': 41.0}",5.2,5.2,0.0,1,Ba7.8 Eu0.2 Al5 Si41
656,[25023],Ba7.9Eu0.1Al5Si41,Ba7.9Eu0.1Al5Si41,"{'Al': 5.0, 'Ba': 7.9, 'Eu': 0.1, 'Si': 41.0}",5.9,5.9,0.0,1,Ba7.9 Eu0.1 Al5 Si41
657,"[23813, 25022]",Ba8Si41Al5,Ba8Si41Al5,"{'Al': 5.0, 'Ba': 8.0, 'Si': 41.0}",6.8,6.4,0.4,2,Ba8 Si41 Al5
658,[12892],Al5Re24,Al5Re24,"{'Al': 5.0, 'Re': 24.0}",3.35,3.35,0.0,1,Al5 Re24
659,[14840],Nb79.2Sn5.2Al5.2Ge10.4,Nb79.2Sn5.2Al5.2Ge10.4,"{'Al': 5.2, 'Ge': 10.4, 'Nb': 79.2, 'Sn': 5.2}",10.9,10.9,0.0,1,Nb79.2 Sn5.2 Al5.2 Ge10.4
660,[14845],Nb77.9Sn11.1Al5.5Ge5.5,Nb77.9Sn11.1Al5.5Ge5.5,"{'Al': 5.5, 'Ge': 5.5, 'Nb': 77.9, 'Sn': 11.1}",13.0,13.0,0.0,1,Nb77.9 Sn11.1 Al5.5 Ge5.5
661,[23814],Ba8Si40Al6,Ba8Si40Al6,"{'Al': 6.0, 'Ba': 8.0, 'Si': 40.0}",5.6,5.6,0.0,1,Ba8 Si40 Al6
662,"[12893, 25981]",Al6Re1,Al6Re1,"{'Al': 6.0, 'Re': 1.0}",1.85,1.295,0.555,2,Al6 Re1
663,[14860],Nb79.5Sn2.1Al6.1Ge12.3,Nb79.5Sn2.1Al6.1Ge12.3,"{'Al': 6.1, 'Ge': 12.3, 'Nb': 79.5, 'Sn': 2.1}",9.4,9.4,0.0,1,Nb79.5 Sn2.1 Al6.1 Ge12.3
664,[14850],Nb77Sn13.8Al6.9Ge2.3,Nb77Sn13.8Al6.9Ge2.3,"{'Al': 6.9, 'Ge': 2.3, 'Nb': 77.0, 'Sn': 13.8}",13.3,13.3,0.0,1,Nb77 Sn13.8 Al6.9 Ge2.3
665,[23815],Ba8Si39Al7,Ba8Si39Al7,"{'Al': 7.0, 'Ba': 8.0, 'Si': 39.0}",4.0,4.0,0.0,1,Ba8 Si39 Al7
666,[14844],Nb78.1Sn7.3Al7.3Ge7.3,Nb78.1Sn7.3Al7.3Ge7.3,"{'Al': 7.3, 'Ge': 7.3, 'Nb': 78.1, 'Sn': 7.3}",12.5,12.5,0.0,1,Nb78.1 Sn7.3 Al7.3 Ge7.3
667,[23816],Ba8Si38Al8,Ba8Si38Al8,"{'Al': 8.0, 'Ba': 8.0, 'Si': 38.0}",3.0,3.0,0.0,1,Ba8 Si38 Al8
668,[16990],Yb1Fe4Al8,Yb1Fe4Al8,"{'Al': 8.0, 'Fe': 4.0, 'Yb': 1.0}",50.0,50.0,0.0,1,Yb1 Fe4 Al8
669,[14839],Nb78.5Sn2.2Al9.6Ge9.6,Nb78.5Sn2.2Al9.6Ge9.6,"{'Al': 9.6, 'Ge': 9.6, 'Nb': 78.5, 'Sn': 2.2}",12.7,12.7,0.0,1,Nb78.5 Sn2.2 Al9.6 Ge9.6
670,[22440],Zr55Cu25Nb5Al10Ni5,Zr55Cu25Nb5Al10Ni5,"{'Al': 10.0, 'Cu': 25.0, 'Nb': 5.0, 'Ni': 5.0, 'Zr': 55.0}",3.0,3.0,0.0,1,Zr55 Cu25 Nb5 Al10 Ni5
671,[22439],Zr55Cu30Al10Ni5,Zr55Cu30Al10Ni5,"{'Al': 10.0, 'Cu': 30.0, 'Ni': 5.0, 'Zr': 55.0}",2.7,2.7,0.0,1,Zr55 Cu30 Al10 Ni5
672,[16040],Nb75Ga15Al10,Nb75Ga15Al10,"{'Al': 10.0, 'Ga': 15.0, 'Nb': 75.0}",18.55,18.55,0.0,1,Nb75 Ga15 Al10
673,[14849],Nb76.3Sn10.5Ge2.3Al10.9,Nb76.3Sn10.5Ge2.3Al10.9,"{'Al': 10.9, 'Ge': 2.3, 'Nb': 76.3, 'Sn': 10.5}",14.4,14.4,0.0,1,Nb76.3 Sn10.5 Ge2.3 Al10.9
674,[14843],Nb77.5Sn5.6Al11.3Ge5.6,Nb77.5Sn5.6Al11.3Ge5.6,"{'Al': 11.3, 'Ge': 5.6, 'Nb': 77.5, 'Sn': 5.6}",15.2,15.2,0.0,1,Nb77.5 Sn5.6 Al11.3 Ge5.6
675,[14842],Nb78.5Sn2.2Al12.8Ge6.5,Nb78.5Sn2.2Al12.8Ge6.5,"{'Al': 12.8, 'Ge': 6.5, 'Nb': 78.5, 'Sn': 2.2}",17.0,17.0,0.0,1,Nb78.5 Sn2.2 Al12.8 Ge6.5
676,[17640],Al13Os3.2Ru0.8,Al13Os3.2Ru0.8,"{'Al': 13.0, 'Os': 3.2, 'Ru': 0.8}",4.0,4.0,0.0,1,Al13 Os3.2 Ru0.8
677,"[12884, 17639]",Al13Os4,Al13Os4,"{'Al': 13.0, 'Os': 4.0}",5.5,5.4,0.1,2,Al13 Os4
678,[14848],Nb76.3Sn7.1Al14.3Ge2.3,Nb76.3Sn7.1Al14.3Ge2.3,"{'Al': 14.3, 'Ge': 2.3, 'Nb': 76.3, 'Sn': 7.1}",13.9,13.9,0.0,1,Nb76.3 Sn7.1 Al14.3 Ge2.3
679,[22437],Zr55Co30Al15,Zr55Co30Al15,"{'Al': 15.0, 'Co': 30.0, 'Zr': 55.0}",2.4,2.4,0.0,1,Zr55 Co30 Al15
680,[16041],Nb75Ga10Al15,Nb75Ga10Al15,"{'Al': 15.0, 'Ga': 10.0, 'Nb': 75.0}",17.2,17.2,0.0,1,Nb75 Ga10 Al15
681,[16042],Nb75Ga7.5Al17.5,Nb75Ga7.5Al17.5,"{'Al': 17.5, 'Ga': 7.5, 'Nb': 75.0}",18.3,18.3,0.0,1,Nb75 Ga7.5 Al17.5
682,[14847],Nb76Sn2.4Al19.2Ge2.4,Nb76Sn2.4Al19.2Ge2.4,"{'Al': 19.2, 'Ge': 2.4, 'Nb': 76.0, 'Sn': 2.4}",16.0,16.0,0.0,1,Nb76 Sn2.4 Al19.2 Ge2.4
683,[22747],Ga0.05V2Al20,Ga0.05V2Al20,"{'Al': 20.0, 'Ga': 0.05, 'V': 2.0}",1.53,1.53,0.0,1,Ga0.05 V2 Al20
684,[22748],Ga0.1V2Al20,Ga0.1V2Al20,"{'Al': 20.0, 'Ga': 0.1, 'V': 2.0}",1.53,1.53,0.0,1,Ga0.1 V2 Al20
685,[22749],Ga0.15V2Al20,Ga0.15V2Al20,"{'Al': 20.0, 'Ga': 0.15, 'V': 2.0}",1.53,1.53,0.0,1,Ga0.15 V2 Al20
686,"[22736, 22750]",Ga0.2V2Al20,Ga0.2V2Al20,"{'Al': 20.0, 'Ga': 0.2, 'V': 2.0}",1.6600000000000001,1.655,0.005,2,Ga0.2 V2 Al20
687,"[22751, 22752, 22753, 22754]",Ga0.3V2Al20,Ga0.3V2Al20,"{'Al': 20.0, 'Ga': 0.30000000000000004, 'V': 2.0}",1.6,1.5175,0.0617960355,4,Ga0.3 V2 Al20
688,[16043],Nb75Ga5Al20,Nb75Ga5Al20,"{'Al': 20.0, 'Ga': 5.0, 'Nb': 75.0}",18.25,18.25,0.0,1,Nb75 Ga5 Al20
689,[25586],La1Nb2Al20,La1Nb2Al20,"{'Al': 20.0, 'La': 1.0, 'Nb': 2.0}",1.15,1.15,0.0,1,La1 Nb2 Al20
690,[25587],La1Ta2Al20,La1Ta2Al20,"{'Al': 20.0, 'La': 1.0, 'Ta': 2.0}",1.1,1.1,0.0,1,La1 Ta2 Al20
691,[25584],La1Ti2Al20,La1Ti2Al20,"{'Al': 20.0, 'La': 1.0, 'Ti': 2.0}",0.30000000000000004,0.30000000000000004,0.0,1,La1 Ti2 Al20
692,[25585],La1V2Al20,La1V2Al20,"{'Al': 20.0, 'La': 1.0, 'V': 2.0}",0.15,0.15,0.0,1,La1 V2 Al20
693,[25361],Lu1V2Al20,Lu1V2Al20,"{'Al': 20.0, 'Lu': 1.0, 'V': 2.0}",0.6000000000000001,0.6000000000000001,0.0,1,Lu1 V2 Al20
694,"[24694, 25517, 25518, 25572, 25573]",Pr1Ti2Al20,Pr1Ti2Al20,"{'Al': 20.0, 'Pr': 1.0, 'Ti': 2.0}",1.12,0.452,0.3743474322,5,Pr1 Ti2 Al20
695,"[24692, 24693, 25519]",Pr1V2Al20,Pr1V2Al20,"{'Al': 20.0, 'Pr': 1.0, 'V': 2.0}",0.05,0.045666666700000004,0.0047842334,3,Pr1 V2 Al20
696,[25359],Sc1V2Al20,Sc1V2Al20,"{'Al': 20.0, 'Sc': 1.0, 'V': 2.0}",1.03,1.03,0.0,1,Sc1 V2 Al20
697,"[22737, 25360]",Y1V2Al20,Y1V2Al20,"{'Al': 20.0, 'V': 2.0, 'Y': 1.0}",0.6900000000000001,0.65,0.04,2,Y1 V2 Al20
698,[22735],Al20.3V2,Al20.3V2,"{'Al': 20.3, 'V': 2.0}",1.49,1.49,0.0,1,Al20.3 V2
699,[22755],Al20.3V20,Al20.3V20,"{'Al': 20.3, 'V': 20.0}",1.49,1.49,0.0,1,Al20.3 V20
700,[16044],Al25Nb75,Al25Nb75,"{'Al': 25.0, 'Nb': 75.0}",17.5,17.5,0.0,1,Al25 Nb75
701,[20362],Ca24Al28O66,Ca24Al28O66,"{'Al': 28.0, 'Ca': 24.0, 'O': 66.0}",0.195,0.195,0.0,1,Ca24 Al28 O66
702,[24827],Y6Mo4Al43,Y6Mo4Al43,"{'Al': 43.0, 'Mo': 4.0, 'Y': 6.0}",0.75,0.75,0.0,1,Y6 Mo4 Al43
703,[24826],Y6Nb4Al43,Y6Nb4Al43,"{'Al': 43.0, 'Nb': 4.0, 'Y': 6.0}",0.86,0.86,0.0,1,Y6 Nb4 Al43
704,[24828],Y6Ta4Al43,Y6Ta4Al43,"{'Al': 43.0, 'Ta': 4.0, 'Y': 6.0}",0.68,0.68,0.0,1,Y6 Ta4 Al43
705,[18822],Al99.925Mn0.075,Al99.925Mn0.075,"{'Al': 99.925, 'Mn': 0.075}",0.7000000000000001,0.7000000000000001,0.0,1,Al99.925 Mn0.075
706,"[19800, 19807]",Sn0.97As0.005Te0.995,Sn0.97As0.005Te0.995,"{'As': 0.005, 'Sn': 0.97, 'Te': 0.995}",0.108,0.088,0.02,2,Sn0.97 As0.005 Te0.995
707,[19808],Sn0.97As0.006Te0.994,Sn0.97As0.006Te0.994,"{'As': 0.006, 'Sn': 0.97, 'Te': 0.994}",0.048,0.048,0.0,1,Sn0.97 As0.006 Te0.994
708,[19809],Sn0.97As0.007Te0.993,Sn0.97As0.007Te0.993,"{'As': 0.007, 'Sn': 0.97, 'Te': 0.993}",0.038,0.038,0.0,1,Sn0.97 As0.007 Te0.993
709,[19810],Sn0.97As0.008Te0.992,Sn0.97As0.008Te0.992,"{'As': 0.008, 'Sn': 0.97, 'Te': 0.992}",0.022,0.022,0.0,1,Sn0.97 As0.008 Te0.992
710,[19811],Sn0.97As0.009Te0.991,Sn0.97As0.009Te0.991,"{'As': 0.009000000000000001, 'Sn': 0.97, 'Te': 0.991}",0.0195,0.0195,0.0,1,Sn0.97 As0.009 Te0.991
711,"[19801, 19812]",Sn0.97As0.01Te0.99,Sn0.97As0.01Te0.99,"{'As': 0.01, 'Sn': 0.97, 'Te': 0.99}",0.073,0.048,0.025,2,Sn0.97 As0.01 Te0.99
712,[19802],Sn0.97As0.015Te0.985,Sn0.97As0.015Te0.985,"{'As': 0.015, 'Sn': 0.97, 'Te': 0.985}",0.051000000000000004,0.051000000000000004,0.0,1,Sn0.97 As0.015 Te0.985
713,[19803],Sn0.97As0.017Te0.983,Sn0.97As0.017Te0.983,"{'As': 0.017, 'Sn': 0.97, 'Te': 0.983}",0.058,0.058,0.0,1,Sn0.97 As0.017 Te0.983
714,[19804],Sn0.97As0.02Te0.98,Sn0.97As0.02Te0.98,"{'As': 0.02, 'Sn': 0.97, 'Te': 0.98}",0.0318,0.0318,0.0,1,Sn0.97 As0.02 Te0.98
715,[19805],Sn0.97As0.022Te0.978,Sn0.97As0.022Te0.978,"{'As': 0.022, 'Sn': 0.97, 'Te': 0.978}",0.0332,0.0332,0.0,1,Sn0.97 As0.022 Te0.978
716,[19806],Sn0.97As0.025Te0.975,Sn0.97As0.025Te0.975,"{'As': 0.025, 'Sn': 0.97, 'Te': 0.975}",0.013800000000000002,0.013800000000000002,0.0,1,Sn0.97 As0.025 Te0.975
717,[18027],Nb3As0.05Sn0.95,Nb3As0.05Sn0.95,"{'As': 0.05, 'Nb': 3.0, 'Sn': 0.9500000000000001}",18.19,18.19,0.0,1,Nb3 As0.05 Sn0.95
718,[24530],La1Fe1As0.1P0.9O1,La1Fe1As0.1P0.9O1,"{'As': 0.1, 'Fe': 1.0, 'La': 1.0, 'O': 1.0, 'P': 0.9}",5.96,5.96,0.0,1,La1 Fe1 As0.1 P0.9 O1
719,[12550],As0.1P0.9,As0.1P0.9,"{'As': 0.1, 'P': 0.9}",9.9,9.9,0.0,1,As0.1 P0.9
720,[12907],As0.15Bi0.15Nb3Sn0.7,As0.15Bi0.15Nb3Sn0.7,"{'As': 0.15, 'Bi': 0.15, 'Nb': 3.0, 'Sn': 0.7000000000000001}",18.07,18.07,0.0,1,As0.15 Bi0.15 Nb3 Sn0.7
721,[24531],La1Fe1As0.15P0.85O1,La1Fe1As0.15P0.85O1,"{'As': 0.15, 'Fe': 1.0, 'La': 1.0, 'O': 1.0, 'P': 0.85}",11.67,11.67,0.0,1,La1 Fe1 As0.15 P0.85 O1
722,[12912],As0.15Ga0.15Nb3Sn0.7,As0.15Ga0.15Nb3Sn0.7,"{'As': 0.15, 'Ga': 0.15, 'Nb': 3.0, 'Sn': 0.7000000000000001}",18.01,18.01,0.0,1,As0.15 Ga0.15 Nb3 Sn0.7
723,[12919],As0.15In0.15Nb3Sn0.7,As0.15In0.15Nb3Sn0.7,"{'As': 0.15, 'In': 0.15, 'Nb': 3.0, 'Sn': 0.7000000000000001}",17.99,17.99,0.0,1,As0.15 In0.15 Nb3 Sn0.7
724,[12917],As0.15Nb3Pb0.15Sn0.7,As0.15Nb3Pb0.15Sn0.7,"{'As': 0.15, 'Nb': 3.0, 'Pb': 0.15, 'Sn': 0.7000000000000001}",18.05,18.05,0.0,1,As0.15 Nb3 Pb0.15 Sn0.7
725,[12915],As0.15Nb3Sn0.7Tl0.15,As0.15Nb3Sn0.7Tl0.15,"{'As': 0.15, 'Nb': 3.0, 'Sn': 0.7000000000000001, 'Tl': 0.15}",17.98,17.98,0.0,1,As0.15 Nb3 Sn0.7 Tl0.15
726,[12916],As0.15Nb3Sn0.85,As0.15Nb3Sn0.85,"{'As': 0.15, 'Nb': 3.0, 'Sn': 0.85}",17.98,17.98,0.0,1,As0.15 Nb3 Sn0.85
727,[23022],Ba1Ti2As0.2Sb1.8O1,Ba1Ti2As0.2Sb1.8O1,"{'As': 0.2, 'Ba': 1.0, 'O': 1.0, 'Sb': 1.8, 'Ti': 2.0}",0.48,0.48,0.0,1,Ba1 Ti2 As0.2 Sb1.8 O1
728,[24537],La1Fe1As0.2P0.8F0.05O0.95,La1Fe1As0.2P0.8F0.05O0.95,"{'As': 0.2, 'F': 0.05, 'Fe': 1.0, 'La': 1.0, 'O': 0.9500000000000001, 'P': 0.8}",10.87,10.87,0.0,1,La1 Fe1 As0.2 P0.8 F0.05 O0.95
729,[24524],La1Fe1As0.2P0.8F0.1O0.9,La1Fe1As0.2P0.8F0.1O0.9,"{'As': 0.2, 'F': 0.1, 'Fe': 1.0, 'La': 1.0, 'O': 0.9, 'P': 0.8}",8.8,8.8,0.0,1,La1 Fe1 As0.2 P0.8 F0.1 O0.9
730,[24669],Nd1Fe1As0.2P0.8F0.1O0.9,Nd1Fe1As0.2P0.8F0.1O0.9,"{'As': 0.2, 'F': 0.1, 'Fe': 1.0, 'Nd': 1.0, 'O': 0.9, 'P': 0.8}",6.98,6.98,0.0,1,Nd1 Fe1 As0.2 P0.8 F0.1 O0.9
731,[24662],Pr1Fe1As0.2P0.8F0.1O0.9,Pr1Fe1As0.2P0.8F0.1O0.9,"{'As': 0.2, 'F': 0.1, 'Fe': 1.0, 'O': 0.9, 'P': 0.8, 'Pr': 1.0}",8.71,8.71,0.0,1,Pr1 Fe1 As0.2 P0.8 F0.1 O0.9
732,[25540],La1Fe1As0.2P0.8F0.14O0.86,La1Fe1As0.2P0.8F0.14O0.86,"{'As': 0.2, 'F': 0.14, 'Fe': 1.0, 'La': 1.0, 'O': 0.86, 'P': 0.8}",10.1,10.1,0.0,1,La1 Fe1 As0.2 P0.8 F0.14 O0.86
733,[24532],La1Fe1As0.2P0.8O1,La1Fe1As0.2P0.8O1,"{'As': 0.2, 'Fe': 1.0, 'La': 1.0, 'O': 1.0, 'P': 0.8}",11.42,11.42,0.0,1,La1 Fe1 As0.2 P0.8 O1
734,[24533],La1Fe1As0.25P0.75O1,La1Fe1As0.25P0.75O1,"{'As': 0.25, 'Fe': 1.0, 'La': 1.0, 'O': 1.0, 'P': 0.75}",7.52,7.52,0.0,1,La1 Fe1 As0.25 P0.75 O1
735,[12924],As0.25Se0.75Y1,As0.25Se0.75Y1,"{'As': 0.25, 'Se': 0.75, 'Y': 1.0}",0.78,0.78,0.0,1,As0.25 Se0.75 Y1
736,[14889],As0.33In1Te0.67,As0.33In1Te0.67,"{'As': 0.33, 'In': 1.0, 'Te': 0.67}",0.85,0.85,0.0,1,As0.33 In1 Te0.67
737,[26271],Ba1Fe2As0.4P1.6,Ba1Fe2As0.4P1.6,"{'As': 0.4, 'Ba': 1.0, 'Fe': 2.0, 'P': 1.6}",9.1,9.1,0.0,1,Ba1 Fe2 As0.4 P1.6
738,"[24527, 24538]",La1Fe1As0.4P0.6F0.05O0.95,La1Fe1As0.4P0.6F0.05O0.95,"{'As': 0.4, 'F': 0.05, 'Fe': 1.0, 'La': 1.0, 'O': 0.9500000000000001, 'P': 0.6000000000000001}",24.24,24.12,0.12,2,La1 Fe1 As0.4 P0.6 F0.05 O0.95
739,"[24546, 24659, 24707]",La1Fe1As0.4P0.6F0.1O0.9,La1Fe1As0.4P0.6F0.1O0.9,"{'As': 0.4, 'F': 0.1, 'Fe': 1.0, 'La': 1.0, 'O': 0.9, 'P': 0.6000000000000001}",21.4,21.1333333333,0.22050447210000002,3,La1 Fe1 As0.4 P0.6 F0.1 O0.9
740,[24670],Nd1Fe1As0.4P0.6F0.1O0.9,Nd1Fe1As0.4P0.6F0.1O0.9,"{'As': 0.4, 'F': 0.1, 'Fe': 1.0, 'Nd': 1.0, 'O': 0.9, 'P': 0.6000000000000001}",22.6,22.6,0.0,1,Nd1 Fe1 As0.4 P0.6 F0.1 O0.9
741,[24663],Pr1Fe1As0.4P0.6F0.1O0.9,Pr1Fe1As0.4P0.6F0.1O0.9,"{'As': 0.4, 'F': 0.1, 'Fe': 1.0, 'O': 0.9, 'P': 0.6000000000000001, 'Pr': 1.0}",17.4,17.4,0.0,1,Pr1 Fe1 As0.4 P0.6 F0.1 O0.9
742,[25539],La1Fe1As0.4P0.6F0.14O0.86,La1Fe1As0.4P0.6F0.14O0.86,"{'As': 0.4, 'F': 0.14, 'Fe': 1.0, 'La': 1.0, 'O': 0.86, 'P': 0.6000000000000001}",21.1,21.1,0.0,1,La1 Fe1 As0.4 P0.6 F0.14 O0.86
743,[24230],Ce1Fe1As0.47P0.53F0.05O0.95,Ce1Fe1As0.47P0.53F0.05O0.95,"{'As': 0.47000000000000003, 'Ce': 1.0, 'F': 0.05, 'Fe': 1.0, 'O': 0.9500000000000001, 'P': 0.53}",5.84,5.84,0.0,1,Ce1 Fe1 As0.47 P0.53 F0.05 O0.95
744,[24260],Sm1Fe1As0.47P0.53H0.09O0.91,Sm1Fe1As0.47P0.53H0.09O0.91,"{'As': 0.47000000000000003, 'Fe': 1.0, 'H': 0.09, 'O': 0.91, 'P': 0.53, 'Sm': 1.0}",10.5,10.5,0.0,1,Sm1 Fe1 As0.47 P0.53 H0.09 O0.91
745,[24261],Sm1Fe1As0.47P0.53H0.15O0.85,Sm1Fe1As0.47P0.53H0.15O0.85,"{'As': 0.47000000000000003, 'Fe': 1.0, 'H': 0.15, 'O': 0.85, 'P': 0.53, 'Sm': 1.0}",0.0,0.0,0.0,1,Sm1 Fe1 As0.47 P0.53 H0.15 O0.85
746,[24262],Sm1Fe1As0.47P0.53H0.24O0.76,Sm1Fe1As0.47P0.53H0.24O0.76,"{'As': 0.47000000000000003, 'Fe': 1.0, 'H': 0.24, 'O': 0.76, 'P': 0.53, 'Sm': 1.0}",5.5,5.5,0.0,1,Sm1 Fe1 As0.47 P0.53 H0.24 O0.76
747,[26272],Ba1Fe2As0.48P1.52,Ba1Fe2As0.48P1.52,"{'As': 0.48, 'Ba': 1.0, 'Fe': 2.0, 'P': 1.52}",17.1,17.1,0.0,1,Ba1 Fe2 As0.48 P1.52
748,[23263],Pr1Fe0.9Co0.1As0.5P0.5O1,Pr1Fe0.9Co0.1As0.5P0.5O1,"{'As': 0.5, 'Co': 0.1, 'Fe': 0.9, 'O': 1.0, 'P': 0.5, 'Pr': 1.0}",7.46,7.46,0.0,1,Pr1 Fe0.9 Co0.1 As0.5 P0.5 O1
749,[24539],La1Fe1As0.5P0.5F0.05O0.95,La1Fe1As0.5P0.5F0.05O0.95,"{'As': 0.5, 'F': 0.05, 'Fe': 1.0, 'La': 1.0, 'O': 0.9500000000000001, 'P': 0.5}",21.2,21.2,0.0,1,La1 Fe1 As0.5 P0.5 F0.05 O0.95
750,[24671],Nd1Fe1As0.5P0.5F0.1O0.9,Nd1Fe1As0.5P0.5F0.1O0.9,"{'As': 0.5, 'F': 0.1, 'Fe': 1.0, 'Nd': 1.0, 'O': 0.9, 'P': 0.5}",25.2,25.2,0.0,1,Nd1 Fe1 As0.5 P0.5 F0.1 O0.9
751,[25538],La1Fe1As0.5P0.5F0.14O0.86,La1Fe1As0.5P0.5F0.14O0.86,"{'As': 0.5, 'F': 0.14, 'Fe': 1.0, 'La': 1.0, 'O': 0.86, 'P': 0.5}",26.1,26.1,0.0,1,La1 Fe1 As0.5 P0.5 F0.14 O0.86
752,[24414],La1Fe1As0.5P0.5O1,La1Fe1As0.5P0.5O1,"{'As': 0.5, 'Fe': 1.0, 'La': 1.0, 'O': 1.0, 'P': 0.5}",0.0,0.0,0.0,1,La1 Fe1 As0.5 P0.5 O1
753,"[22642, 22643]",Sm1Fe1As0.5P0.5O0.85,Sm1Fe1As0.5P0.5O0.85,"{'As': 0.5, 'Fe': 1.0, 'O': 0.85, 'P': 0.5, 'Sm': 1.0}",21.7,19.35,2.35,2,Sm1 Fe1 As0.5 P0.5 O0.85
754,"[22640, 22641]",Sm1Fe1As0.5P0.5O1,Sm1Fe1As0.5P0.5O1,"{'As': 0.5, 'Fe': 1.0, 'O': 1.0, 'P': 0.5, 'Sm': 1.0}",23.4,21.7,1.7000000000000002,2,Sm1 Fe1 As0.5 P0.5 O1
755,[14888],As0.5In1Te0.5,As0.5In1Te0.5,"{'As': 0.5, 'In': 1.0, 'Te': 0.5}",0.44,0.44,0.0,1,As0.5 In1 Te0.5
756,[14887],As0.5Ni0.06Pd0.44,As0.5Ni0.06Pd0.44,"{'As': 0.5, 'Ni': 0.06, 'Pd': 0.44}",1.3900000000000001,1.3900000000000001,0.0,1,As0.5 Ni0.06 Pd0.44
757,[24229],Ce1Fe1As0.55P0.45F0.05O0.95,Ce1Fe1As0.55P0.45F0.05O0.95,"{'As': 0.55, 'Ce': 1.0, 'F': 0.05, 'Fe': 1.0, 'O': 0.9500000000000001, 'P': 0.45}",15.0,15.0,0.0,1,Ce1 Fe1 As0.55 P0.45 F0.05 O0.95
758,[24257],Sm1Fe1As0.55P0.45H0.08O0.92,Sm1Fe1As0.55P0.45H0.08O0.92,"{'As': 0.55, 'Fe': 1.0, 'H': 0.08, 'O': 0.92, 'P': 0.45, 'Sm': 1.0}",19.0,19.0,0.0,1,Sm1 Fe1 As0.55 P0.45 H0.08 O0.92