,sc_id,supercon_formula,cleaned_formula,material_dict,highest_Tc,average_Tc,std_Tc,entry_count,composition
1871,[24033],Ca8.44La1.56Pt3Fe10As18,Ca8.44La1.56Pt3Fe10As18,"{'As': 18.0, 'Ca': 8.44, 'Fe': 10.0, 'La': 1.56, 'Pt': 3.0}",32.3,32.3,0.0,1,Ca8.44 La1.56 Pt3 Fe10 As18
1872,[24048],Ca8.45Sm1.55Pt3Fe10As18,Ca8.45Sm1.55Pt3Fe10As18,"{'As': 18.0, 'Ca': 8.45, 'Fe': 10.0, 'Pt': 3.0, 'Sm': 1.55}",28.0,28.0,0.0,1,Ca8.45 Sm1.55 Pt3 Fe10 As18
1873,[24041],Ca8.48Pr1.52Pt3Fe10As18,Ca8.48Pr1.52Pt3Fe10As18,"{'As': 18.0, 'Ca': 8.48, 'Fe': 10.0, 'Pr': 1.52, 'Pt': 3.0}",31.8,31.8,0.0,1,Ca8.48 Pr1.52 Pt3 Fe10 As18
1874,[25222],Ca8.5La1.5Pt3Fe10As18,Ca8.5La1.5Pt3Fe10As18,"{'As': 18.0, 'Ca': 8.5, 'Fe': 10.0, 'La': 1.5, 'Pt': 3.0}",34.0,34.0,0.0,1,Ca8.5 La1.5 Pt3 Fe10 As18
1875,[23072],Ca8.55La1.45Pt3Fe10As18,Ca8.55La1.45Pt3Fe10As18,"{'As': 18.0, 'Ca': 8.55, 'Fe': 10.0, 'La': 1.45, 'Pt': 3.0}",26.1,26.1,0.0,1,Ca8.55 La1.45 Pt3 Fe10 As18
1876,[24032],Ca8.6La1.4Pt3Fe10As18,Ca8.6La1.4Pt3Fe10As18,"{'As': 18.0, 'Ca': 8.6, 'Fe': 10.0, 'La': 1.4, 'Pt': 3.0}",34.5,34.5,0.0,1,Ca8.6 La1.4 Pt3 Fe10 As18
1877,[24044],Ca8.77Nd1.23Pt3Fe10As18,Ca8.77Nd1.23Pt3Fe10As18,"{'As': 18.0, 'Ca': 8.77, 'Fe': 10.0, 'Nd': 1.23, 'Pt': 3.0}",28.4,28.4,0.0,1,Ca8.77 Nd1.23 Pt3 Fe10 As18
1878,[24040],Ca8.77Pr1.23Pt3Fe10As18,Ca8.77Pr1.23Pt3Fe10As18,"{'As': 18.0, 'Ca': 8.77, 'Fe': 10.0, 'Pr': 1.23, 'Pt': 3.0}",26.9,26.9,0.0,1,Ca8.77 Pr1.23 Pt3 Fe10 As18
1879,[24031],Ca8.85La1.15Pt3Fe10As18,Ca8.85La1.15Pt3Fe10As18,"{'As': 18.0, 'Ca': 8.85, 'Fe': 10.0, 'La': 1.15, 'Pt': 3.0}",35.1,35.1,0.0,1,Ca8.85 La1.15 Pt3 Fe10 As18
1880,[24030],Ca8.87La1.13Pt3Fe10As18,Ca8.87La1.13Pt3Fe10As18,"{'As': 18.0, 'Ca': 8.87, 'Fe': 10.0, 'La': 1.13, 'Pt': 3.0}",32.8,32.8,0.0,1,Ca8.87 La1.13 Pt3 Fe10 As18
1881,[25400],Ca8.9La1.1Pt3Fe10As18,Ca8.9La1.1Pt3Fe10As18,"{'As': 18.0, 'Ca': 8.9, 'Fe': 10.0, 'La': 1.1, 'Pt': 3.0}",23.3,23.3,0.0,1,Ca8.9 La1.1 Pt3 Fe10 As18
1882,[24029],Ca9La1Pt3Fe10As18,Ca9La1Pt3Fe10As18,"{'As': 18.0, 'Ca': 9.0, 'Fe': 10.0, 'La': 1.0, 'Pt': 3.0}",27.9,27.9,0.0,1,Ca9 La1 Pt3 Fe10 As18
1883,[24049],Ca9.06Gd0.94Pt3Fe10As18,Ca9.06Gd0.94Pt3Fe10As18,"{'As': 18.0, 'Ca': 9.06, 'Fe': 10.0, 'Gd': 0.9400000000000001, 'Pt': 3.0}",25.0,25.0,0.0,1,Ca9.06 Gd0.94 Pt3 Fe10 As18
1884,[23071],Ca9.07La0.93Pt3Fe10As18,Ca9.07La0.93Pt3Fe10As18,"{'As': 18.0, 'Ca': 9.07, 'Fe': 10.0, 'La': 0.93, 'Pt': 3.0}",22.2,22.2,0.0,1,Ca9.07 La0.93 Pt3 Fe10 As18
1885,[25403],Ca9.1La0.9Pt3Fe10As18,Ca9.1La0.9Pt3Fe10As18,"{'As': 18.0, 'Ca': 9.1, 'Fe': 10.0, 'La': 0.9, 'Pt': 3.0}",22.2,22.2,0.0,1,Ca9.1 La0.9 Pt3 Fe10 As18
1886,[24050],Ca9.16Tb0.84Pt3Fe10As18,Ca9.16Tb0.84Pt3Fe10As18,"{'As': 18.0, 'Ca': 9.16, 'Fe': 10.0, 'Pt': 3.0, 'Tb': 0.84}",23.7,23.7,0.0,1,Ca9.16 Tb0.84 Pt3 Fe10 As18
1887,[24035],Ca9.26Ce0.74Pt3Fe10As18,Ca9.26Ce0.74Pt3Fe10As18,"{'As': 18.0, 'Ca': 9.26, 'Ce': 0.74, 'Fe': 10.0, 'Pt': 3.0}",22.6,22.6,0.0,1,Ca9.26 Ce0.74 Pt3 Fe10 As18
1888,[24047],Ca9.29Sm0.71Pt3Fe10As18,Ca9.29Sm0.71Pt3Fe10As18,"{'As': 18.0, 'Ca': 9.29, 'Fe': 10.0, 'Pt': 3.0, 'Sm': 0.71}",26.2,26.2,0.0,1,Ca9.29 Sm0.71 Pt3 Fe10 As18
1889,[24051],Ca9.35Dy0.65Pt3Fe10As18,Ca9.35Dy0.65Pt3Fe10As18,"{'As': 18.0, 'Ca': 9.35, 'Dy': 0.65, 'Fe': 10.0, 'Pt': 3.0}",20.9,20.9,0.0,1,Ca9.35 Dy0.65 Pt3 Fe10 As18
1890,[23070],Ca9.35La0.65Pt3Fe10As18,Ca9.35La0.65Pt3Fe10As18,"{'As': 18.0, 'Ca': 9.35, 'Fe': 10.0, 'La': 0.65, 'Pt': 3.0}",19.7,19.7,0.0,1,Ca9.35 La0.65 Pt3 Fe10 As18
1891,[24039],Ca9.39Pr0.61Pt3Fe10As18,Ca9.39Pr0.61Pt3Fe10As18,"{'As': 18.0, 'Ca': 9.39, 'Fe': 10.0, 'Pr': 0.61, 'Pt': 3.0}",19.5,19.5,0.0,1,Ca9.39 Pr0.61 Pt3 Fe10 As18
1892,[25402],Ca9.4La0.6Pt3Fe10As18,Ca9.4La0.6Pt3Fe10As18,"{'As': 18.0, 'Ca': 9.4, 'Fe': 10.0, 'La': 0.6000000000000001, 'Pt': 3.0}",18.2,18.2,0.0,1,Ca9.4 La0.6 Pt3 Fe10 As18
1893,[24055],Ca9.5Yb0.5Pt3Fe10As18,Ca9.5Yb0.5Pt3Fe10As18,"{'As': 18.0, 'Ca': 9.5, 'Fe': 10.0, 'Pt': 3.0, 'Yb': 0.5}",11.6,11.6,0.0,1,Ca9.5 Yb0.5 Pt3 Fe10 As18
1894,[23069],Ca9.57La0.43Pt3Fe10As18,Ca9.57La0.43Pt3Fe10As18,"{'As': 18.0, 'Ca': 9.57, 'Fe': 10.0, 'La': 0.43, 'Pt': 3.0}",13.3,13.3,0.0,1,Ca9.57 La0.43 Pt3 Fe10 As18
1895,[24057],Ca9.58Y0.42Pt3Fe10As18,Ca9.58Y0.42Pt3Fe10As18,"{'As': 18.0, 'Ca': 9.58, 'Fe': 10.0, 'Pt': 3.0, 'Y': 0.42}",18.6,18.6,0.0,1,Ca9.58 Y0.42 Pt3 Fe10 As18
1896,[25399],Ca9.6La0.4Pt3Fe10As18,Ca9.6La0.4Pt3Fe10As18,"{'As': 18.0, 'Ca': 9.6, 'Fe': 10.0, 'La': 0.4, 'Pt': 3.0}",12.7,12.7,0.0,1,Ca9.6 La0.4 Pt3 Fe10 As18
1897,[24052],Ca9.68Ho0.32Pt3Fe10As18,Ca9.68Ho0.32Pt3Fe10As18,"{'As': 18.0, 'Ca': 9.68, 'Fe': 10.0, 'Ho': 0.32, 'Pt': 3.0}",19.5,19.5,0.0,1,Ca9.68 Ho0.32 Pt3 Fe10 As18
1898,[24054],Ca9.72Tm0.28Pt3Fe10As18,Ca9.72Tm0.28Pt3Fe10As18,"{'As': 18.0, 'Ca': 9.72, 'Fe': 10.0, 'Pt': 3.0, 'Tm': 0.28}",14.8,14.8,0.0,1,Ca9.72 Tm0.28 Pt3 Fe10 As18
1899,[24053],Ca9.75Er0.25Pt3Fe10As18,Ca9.75Er0.25Pt3Fe10As18,"{'As': 18.0, 'Ca': 9.75, 'Er': 0.25, 'Fe': 10.0, 'Pt': 3.0}",17.6,17.6,0.0,1,Ca9.75 Er0.25 Pt3 Fe10 As18
1900,[24056],Ca9.75Lu0.25Pt3Fe10As18,Ca9.75Lu0.25Pt3Fe10As18,"{'As': 18.0, 'Ca': 9.75, 'Fe': 10.0, 'Lu': 0.25, 'Pt': 3.0}",10.9,10.9,0.0,1,Ca9.75 Lu0.25 Pt3 Fe10 As18
1901,[22480],Ca10Fe8.2Pt4.8As18,Ca10Fe8.2Pt4.8As18,"{'As': 18.0, 'Ca': 10.0, 'Fe': 8.2, 'Pt': 4.8}",38.0,38.0,0.0,1,Ca10 Fe8.2 Pt4.8 As18
1902,[22803],Ca10Pt5.8Fe8.2As18,Ca10Pt5.8Fe8.2As18,"{'As': 18.0, 'Ca': 10.0, 'Fe': 8.2, 'Pt': 5.8}",33.65,33.65,0.0,1,Ca10 Pt5.8 Fe8.2 As18
1903,[26105],Ca10Pt4.3Fe8.7As18,Ca10Pt4.3Fe8.7As18,"{'As': 18.0, 'Ca': 10.0, 'Fe': 8.7, 'Pt': 4.3}",13.0,13.0,0.0,1,Ca10 Pt4.3 Fe8.7 As18
1904,[23338],Ca10Pt4.05Fe8.95As18,Ca10Pt4.05Fe8.95As18,"{'As': 18.0, 'Ca': 10.0, 'Fe': 8.95, 'Pt': 4.05}",13.0,13.0,0.0,1,Ca10 Pt4.05 Fe8.95 As18
1905,[23082],Ca10Pt5Fe9As18,Ca10Pt5Fe9As18,"{'As': 18.0, 'Ca': 10.0, 'Fe': 9.0, 'Pt': 5.0}",9.78,9.78,0.0,1,Ca10 Pt5 Fe9 As18
1906,[22939],Ca10Pt3.981Fe9.019As18,Ca10Pt3.981Fe9.019As18,"{'As': 18.0, 'Ca': 10.0, 'Fe': 9.019, 'Pt': 3.981}",7.49,7.49,0.0,1,Ca10 Pt3.981 Fe9.019 As18
1907,"[22846, 22991]",Ca10Pt3.97Fe9.03As18,Ca10Pt3.97Fe9.03As18,"{'As': 18.0, 'Ca': 10.0, 'Fe': 9.03, 'Pt': 3.9699999999999998}",11.0,10.75,0.25,2,Ca10 Pt3.97 Fe9.03 As18
1908,[22481],Ca10Fe9.2Pt3.8As18,Ca10Fe9.2Pt3.8As18,"{'As': 18.0, 'Ca': 10.0, 'Fe': 9.2, 'Pt': 3.8}",13.0,13.0,0.0,1,Ca10 Fe9.2 Pt3.8 As18
1909,[22804],Ca10Pt4.8Fe9.2As18,Ca10Pt4.8Fe9.2As18,"{'As': 18.0, 'Ca': 10.0, 'Fe': 9.2, 'Pt': 4.8}",13.7,13.7,0.0,1,Ca10 Pt4.8 Fe9.2 As18
1910,[23619],Ca10Pt0.78Fe9.22As18,Ca10Pt0.78Fe9.22As18,"{'As': 18.0, 'Ca': 10.0, 'Fe': 9.22, 'Pt': 0.78}",9.96,9.96,0.0,1,Ca10 Pt0.78 Fe9.22 As18
1911,[23086],Ca10Pt3.72Fe9.28As18,Ca10Pt3.72Fe9.28As18,"{'As': 18.0, 'Ca': 10.0, 'Fe': 9.28, 'Pt': 3.7199999999999998}",14.9,14.9,0.0,1,Ca10 Pt3.72 Fe9.28 As18
1912,[22938],Ca10Pt3.617Fe9.383As18,Ca10Pt3.617Fe9.383As18,"{'As': 18.0, 'Ca': 10.0, 'Fe': 9.383, 'Pt': 3.617}",13.6,13.6,0.0,1,Ca10 Pt3.617 Fe9.383 As18
1913,[23081],Ca10Pt4.6Fe9.4As18,Ca10Pt4.6Fe9.4As18,"{'As': 18.0, 'Ca': 10.0, 'Fe': 9.4, 'Pt': 4.6}",22.5,22.5,0.0,1,Ca10 Pt4.6 Fe9.4 As18
1914,[22937],Ca10Pt3.53Fe9.47As18,Ca10Pt3.53Fe9.47As18,"{'As': 18.0, 'Ca': 10.0, 'Fe': 9.47, 'Pt': 3.5300000000000002}",15.8,15.8,0.0,1,Ca10 Pt3.53 Fe9.47 As18
1915,[23085],Ca10Pt3.51Fe9.49As18,Ca10Pt3.51Fe9.49As18,"{'As': 18.0, 'Ca': 10.0, 'Fe': 9.49, 'Pt': 3.51}",12.44,12.44,0.0,1,Ca10 Pt3.51 Fe9.49 As18
1916,[26102],Ca10Pt4.5Fe9.5As18,Ca10Pt4.5Fe9.5As18,"{'As': 18.0, 'Ca': 10.0, 'Fe': 9.5, 'Pt': 4.5}",32.0,32.0,0.0,1,Ca10 Pt4.5 Fe9.5 As18
1917,[22936],Ca10Pt3.474Fe9.526As18,Ca10Pt3.474Fe9.526As18,"{'As': 18.0, 'Ca': 10.0, 'Fe': 9.526, 'Pt': 3.474}",11.85,11.85,0.0,1,Ca10 Pt3.474 Fe9.526 As18
1918,"[22845, 23084]",Ca10Pt3.42Fe9.58As18,Ca10Pt3.42Fe9.58As18,"{'As': 18.0, 'Ca': 10.0, 'Fe': 9.58, 'Pt': 3.42}",10.96,9.87,1.09,2,Ca10 Pt3.42 Fe9.58 As18
1919,[22844],Ca10Pt3.41Fe9.59As18,Ca10Pt3.41Fe9.59As18,"{'As': 18.0, 'Ca': 10.0, 'Fe': 9.59, 'Pt': 3.41}",7.38,7.38,0.0,1,Ca10 Pt3.41 Fe9.59 As18
1920,[23083],Ca10Pt3.33Fe9.67As18,Ca10Pt3.33Fe9.67As18,"{'As': 18.0, 'Ca': 10.0, 'Fe': 9.67, 'Pt': 3.33}",0.0,0.0,0.0,1,Ca10 Pt3.33 Fe9.67 As18
1921,[22874],Ca10Pt4.054Fe9.7As18,Ca10Pt4.054Fe9.7As18,"{'As': 18.0, 'Ca': 10.0, 'Fe': 9.7, 'Pt': 4.054}",26.5,26.5,0.0,1,Ca10 Pt4.054 Fe9.7 As18
1922,"[23080, 26104]",Ca10Pt4.3Fe9.7As18,Ca10Pt4.3Fe9.7As18,"{'As': 18.0, 'Ca': 10.0, 'Fe': 9.7, 'Pt': 4.3}",33.9,30.45,3.45,2,Ca10 Pt4.3 Fe9.7 As18
1923,[22843],Ca10Pt3.28Fe9.72As18,Ca10Pt3.28Fe9.72As18,"{'As': 18.0, 'Ca': 10.0, 'Fe': 9.72, 'Pt': 3.2800000000000002}",6.0,6.0,0.0,1,Ca10 Pt3.28 Fe9.72 As18
1924,[22935],Ca10Pt3.213Fe9.787As18,Ca10Pt3.213Fe9.787As18,"{'As': 18.0, 'Ca': 10.0, 'Fe': 9.787, 'Pt': 3.213}",4.3,4.3,0.0,1,Ca10 Pt3.213 Fe9.787 As18
1925,[23339],Ca10Pt4.2Fe9.8As18,Ca10Pt4.2Fe9.8As18,"{'As': 18.0, 'Ca': 10.0, 'Fe': 9.8, 'Pt': 4.2}",30.0,30.0,0.0,1,Ca10 Pt4.2 Fe9.8 As18
1926,[23079],Ca10Pt4.1Fe9.9As18,Ca10Pt4.1Fe9.9As18,"{'As': 18.0, 'Ca': 10.0, 'Fe': 9.9, 'Pt': 4.1}",32.2,32.2,0.0,1,Ca10 Pt4.1 Fe9.9 As18
1927,[25274],Ca10Pt3.02As18Fe9.98,Ca10Pt3.02As18Fe9.98,"{'As': 18.0, 'Ca': 10.0, 'Fe': 9.98, 'Pt': 3.02}",7.62,7.62,0.0,1,Ca10 Pt3.02 As18 Fe9.98
1928,"[24282, 24357]",Ca10Ir4Fe10As18,Ca10Ir4Fe10As18,"{'As': 18.0, 'Ca': 10.0, 'Fe': 10.0, 'Ir': 4.0}",18.7,17.35,1.35,2,Ca10 Ir4 Fe10 As18
1929,"[23078, 26103]",Ca10Pt4Fe10As18,Ca10Pt4Fe10As18,"{'As': 18.0, 'Ca': 10.0, 'Fe': 10.0, 'Pt': 4.0}",38.0,36.5,1.5,2,Ca10 Pt4 Fe10 As18
1930,"[14808, 14898, 18460]",Nb3Rh0.98Au0.02,Nb3Rh0.98Au0.02,"{'Au': 0.02, 'Nb': 3.0, 'Rh': 0.98}",2.5300000000000002,2.5300000000000002,0.0,3,Nb3 Rh0.98 Au0.02
1931,[6275],Y1Ba2Cu2.955Au0.045O7-Z,Y1Ba2Cu2.955Au0.045O7,"{'Au': 0.045, 'Ba': 2.0, 'Cu': 2.955, 'O': 7.0, 'Y': 1.0}",91.5,91.5,0.0,1,Y1 Ba2 Cu2.955 Au0.045 O7
1932,"[14807, 18461]",Nb3Rh0.95Au0.05,Nb3Rh0.95Au0.05,"{'Au': 0.05, 'Nb': 3.0, 'Rh': 0.9500000000000001}",2.52,2.52,0.0,2,Nb3 Rh0.95 Au0.05
1933,[19888],Au0.05Zr0.95,Au0.05Zr0.95,"{'Au': 0.05, 'Zr': 0.9500000000000001}",1.79,1.79,0.0,1,Au0.05 Zr0.95
1934,[19887],Au0.07Zr0.93,Au0.07Zr0.93,"{'Au': 0.07, 'Zr': 0.93}",2.52,2.52,0.0,1,Au0.07 Zr0.93
1935,[23464],Au0.075Sb0.85Te0.075,Au0.075Sb0.85Te0.075,"{'Au': 0.075, 'Sb': 0.85, 'Te': 0.075}",4.5,4.5,0.0,1,Au0.075 Sb0.85 Te0.075
1936,[16779],Au0.098Pd0.02Ga2,Au0.098Pd0.02Ga2,"{'Au': 0.098, 'Ga': 2.0, 'Pd': 0.02}",1.51,1.51,0.0,1,Au0.098 Pd0.02 Ga2
1937,[12929],Au0.1C1.3Y0.9,Au0.1C1.3Y0.9,"{'Au': 0.1, 'C': 1.3, 'Y': 0.9}",10.1,10.1,0.0,1,Au0.1 C1.3 Y0.9
1938,"[14806, 18462]",Nb3Rh0.9Au0.1,Nb3Rh0.9Au0.1,"{'Au': 0.1, 'Nb': 3.0, 'Rh': 0.9}",2.7,2.7,0.0,2,Nb3 Rh0.9 Au0.1
1939,[23465],Au0.1Sb0.8Te0.1,Au0.1Sb0.8Te0.1,"{'Au': 0.1, 'Sb': 0.8, 'Te': 0.1}",6.0,6.0,0.0,1,Au0.1 Sb0.8 Te0.1
1940,"[23468, 23469]",Au0.1Sb0.9,Au0.1Sb0.9,"{'Au': 0.1, 'Sb': 0.9}",8.0,7.5,0.5,2,Au0.1 Sb0.9
1941,[19886],Au0.1Zr0.9,Au0.1Zr0.9,"{'Au': 0.1, 'Zr': 0.9}",2.7800000000000002,2.7800000000000002,0.0,1,Au0.1 Zr0.9
1942,[19885],Au0.12Zr0.88,Au0.12Zr0.88,"{'Au': 0.12, 'Zr': 0.88}",2.7800000000000002,2.7800000000000002,0.0,1,Au0.12 Zr0.88
1943,[23466],Au0.125Sb0.75Te0.125,Au0.125Sb0.75Te0.125,"{'Au': 0.125, 'Sb': 0.75, 'Te': 0.125}",6.7,6.7,0.0,1,Au0.125 Sb0.75 Te0.125
1944,[19907],Au0.14Te0.86,Au0.14Te0.86,"{'Au': 0.14, 'Te': 0.86}",1.7000000000000002,1.7000000000000002,0.0,1,Au0.14 Te0.86
1945,[17338],Mg0.854Au0.146B2,Mg0.854Au0.146B2,"{'Au': 0.146, 'B': 2.0, 'Mg': 0.854}",25.6,25.6,0.0,1,Mg0.854 Au0.146 B2
1946,[23470],Au0.15Sb0.85,Au0.15Sb0.85,"{'Au': 0.15, 'Sb': 0.85}",8.1,8.1,0.0,1,Au0.15 Sb0.85
1947,[19906],Au0.15Te0.85,Au0.15Te0.85,"{'Au': 0.15, 'Te': 0.85}",1.6400000000000001,1.6400000000000001,0.0,1,Au0.15 Te0.85
1948,[11751],Pd0.84Au0.16H0.9,Pd0.84Au0.16H0.9,"{'Au': 0.16, 'H': 0.9, 'Pd': 0.84}",13.6,13.6,0.0,1,Pd0.84 Au0.16 H0.9
1949,[19905],Au0.16Te0.84,Au0.16Te0.84,"{'Au': 0.16, 'Te': 0.84}",1.71,1.71,0.0,1,Au0.16 Te0.84
1950,[12954],Au0.167Pd0.166Te0.667,Au0.167Pd0.166Te0.667,"{'Au': 0.167, 'Pd': 0.166, 'Te': 0.667}",4.6,4.6,0.0,1,Au0.167 Pd0.166 Te0.667
1951,"[15991, 15992]",Nb0.75Au0.175Pt0.075,Nb0.75Au0.175Pt0.075,"{'Au': 0.17500000000000002, 'Nb': 0.75, 'Pt': 0.075}",12.9,12.85,0.05,2,Nb0.75 Au0.175 Pt0.075
1952,[19904],Au0.18Te0.82,Au0.18Te0.82,"{'Au': 0.18, 'Te': 0.8200000000000001}",1.56,1.56,0.0,1,Au0.18 Te0.82
1953,[12934],Au0.2B5Mo1.8,Au0.2B5Mo1.8,"{'Au': 0.2, 'B': 5.0, 'Mo': 1.8}",4.5,4.5,0.0,1,Au0.2 B5 Mo1.8
1954,[18972],Y1.8Au0.2C2.6,Y1.8Au0.2C2.6,"{'Au': 0.2, 'C': 2.6, 'Y': 1.8}",10.1,10.1,0.0,1,Y1.8 Au0.2 C2.6
1955,[16789],Au0.2Ga0.8,Au0.2Ga0.8,"{'Au': 0.2, 'Ga': 0.8}",1.587,1.587,0.0,1,Au0.2 Ga0.8
1956,[20347],Au0.2Pd1.8In1Y1,Au0.2Pd1.8In1Y1,"{'Au': 0.2, 'In': 1.0, 'Pd': 1.8, 'Y': 1.0}",1.24,1.24,0.0,1,Au0.2 Pd1.8 In1 Y1
1957,"[12358, 12361]",Au0.2La0.8,Au0.2La0.8,"{'Au': 0.2, 'La': 0.8}",4.23,3.9699999999999998,0.26,2,Au0.2 La0.8
1958,"[15977, 15984]",Au0.2Nb0.8,Au0.2Nb0.8,"{'Au': 0.2, 'Nb': 0.8}",7.9,6.45,1.45,2,Au0.2 Nb0.8
1959,[23467],Au0.2Sb0.6Te0.2,Au0.2Sb0.6Te0.2,"{'Au': 0.2, 'Sb': 0.6000000000000001, 'Te': 0.2}",6.6,6.6,0.0,1,Au0.2 Sb0.6 Te0.2
1960,[12949],Au0.2Sn0.8,Au0.2Sn0.8,"{'Au': 0.2, 'Sn': 0.8}",2.38,2.38,0.0,1,Au0.2 Sn0.8
1961,[19903],Au0.2Te0.8,Au0.2Te0.8,"{'Au': 0.2, 'Te': 0.8}",1.48,1.48,0.0,1,Au0.2 Te0.8
1962,[12946],Au0.22La0.78,Au0.22La0.78,"{'Au': 0.22, 'La': 0.78}",3.4,3.4,0.0,1,Au0.22 La0.78
1963,[15985],Au0.22Nb0.78,Au0.22Nb0.78,"{'Au': 0.22, 'Nb': 0.78}",7.6,7.6,0.0,1,Au0.22 Nb0.78
1964,[19902],Au0.22Te0.78,Au0.22Te0.78,"{'Au': 0.22, 'Te': 0.78}",1.54,1.54,0.0,1,Au0.22 Te0.78
1965,[12963],Au0.23V0.77,Au0.23V0.77,"{'Au': 0.23, 'V': 0.77}",0.66,0.66,0.0,1,Au0.23 V0.77
1966,[17339],Mg0.764Au0.236B2,Mg0.764Au0.236B2,"{'Au': 0.23600000000000002, 'B': 2.0, 'Mg': 0.764}",24.5,24.5,0.0,1,Mg0.764 Au0.236 B2
1967,"[12362, 12947]",Au0.24La0.76,Au0.24La0.76,"{'Au': 0.24, 'La': 0.76}",4.0,3.64,0.36,2,Au0.24 La0.76
1968,"[15983, 15986]",Au0.24Nb0.76,Au0.24Nb0.76,"{'Au': 0.24, 'Nb': 0.76}",11.0,10.78,0.22,2,Au0.24 Nb0.76
1969,[19901],Au0.24Te0.76,Au0.24Te0.76,"{'Au': 0.24, 'Te': 0.76}",1.72,1.72,0.0,1,Au0.24 Te0.76
1970,[15982],Au0.242Nb0.758,Au0.242Nb0.758,"{'Au': 0.242, 'Nb': 0.758}",10.56,10.56,0.0,1,Au0.242 Nb0.758
1971,[20622],Ba1Pt3.75Au0.25Ge12,Ba1Pt3.75Au0.25Ge12,"{'Au': 0.25, 'Ba': 1.0, 'Ge': 12.0, 'Pt': 3.75}",5.05,5.05,0.0,1,Ba1 Pt3.75 Au0.25 Ge12
1972,"[12942, 15987]",Au0.25Nb0.75,Au0.25Nb0.75,"{'Au': 0.25, 'Nb': 0.75}",11.2,11.1,0.1,2,Au0.25 Nb0.75
1973,[19900],Au0.25Te0.75,Au0.25Te0.75,"{'Au': 0.25, 'Te': 0.75}",1.85,1.85,0.0,1,Au0.25 Te0.75
1974,[12965],Au0.27Tl0.73,Au0.27Tl0.73,"{'Au': 0.27, 'Tl': 0.73}",2.04,2.04,0.0,1,Au0.27 Tl0.73
1975,[16788],Au0.278Ga0.722,Au0.278Ga0.722,"{'Au': 0.278, 'Ga': 0.722}",1.615,1.615,0.0,1,Au0.278 Ga0.722
1976,[19899],Au0.28Te0.72,Au0.28Te0.72,"{'Au': 0.28, 'Te': 0.72}",1.96,1.96,0.0,1,Au0.28 Te0.72
1977,[16787],Au0.281Ga0.719,Au0.281Ga0.719,"{'Au': 0.281, 'Ga': 0.719}",1.587,1.587,0.0,1,Au0.281 Ga0.719
1978,"[16786, 19309]",Au0.293Ga0.707,Au0.293Ga0.707,"{'Au': 0.293, 'Ga': 0.707}",1.63,1.63,0.0,2,Au0.293 Ga0.707
1979,[24502],Ba1Au0.3Si1.7,Ba1Au0.3Si1.7,"{'Au': 0.30000000000000004, 'Ba': 1.0, 'Si': 1.7000000000000002}",3.2,3.2,0.0,1,Ba1 Au0.3 Si1.7
1980,"[14765, 18463]",Nb3Rh0.7Au0.3,Nb3Rh0.7Au0.3,"{'Au': 0.30000000000000004, 'Nb': 3.0, 'Rh': 0.7000000000000001}",4.6,4.6,0.0,2,Nb3 Rh0.7 Au0.3
1981,[12955],Au0.3Pd0.033Te0.666,Au0.3Pd0.033Te0.666,"{'Au': 0.30000000000000004, 'Pd': 0.033, 'Te': 0.666}",2.6,2.6,0.0,1,Au0.3 Pd0.033 Te0.666
1982,[19898],Au0.3Te0.7,Au0.3Te0.7,"{'Au': 0.30000000000000004, 'Te': 0.7000000000000001}",1.99,1.99,0.0,1,Au0.3 Te0.7
1983,[16785],Au0.328Ga0.672,Au0.328Ga0.672,"{'Au': 0.328, 'Ga': 0.672}",1.6680000000000001,1.6680000000000001,0.0,1,Au0.328 Ga0.672
1984,[12948],Au0.33La0.67,Au0.33La0.67,"{'Au': 0.33, 'La': 0.67}",3.2,3.2,0.0,1,Au0.33 La0.67
1985,[19897],Au0.332Te0.668,Au0.332Te0.668,"{'Au': 0.332, 'Te': 0.668}",1.8900000000000001,1.8900000000000001,0.0,1,Au0.332 Te0.668
1986,[19896],Au0.35Te0.65,Au0.35Te0.65,"{'Au': 0.35000000000000003, 'Te': 0.65}",1.58,1.58,0.0,1,Au0.35 Te0.65
1987,[19895],Au0.374Te0.626,Au0.374Te0.626,"{'Au': 0.374, 'Te': 0.626}",1.3,1.3,0.0,1,Au0.374 Te0.626
1988,"[16784, 19308]",Au0.388Ga0.612,Au0.388Ga0.612,"{'Au': 0.388, 'Ga': 0.612}",1.355,1.355,0.0,2,Au0.388 Ga0.612
1989,[14893],Au0.4Ge0.6,Au0.4Ge0.6,"{'Au': 0.4, 'Ge': 0.6000000000000001}",0.32,0.32,0.0,1,Au0.4 Ge0.6
1990,[12937],Au0.41Ge0.59,Au0.41Ge0.59,"{'Au': 0.41000000000000003, 'Ge': 0.59}",2.2,2.2,0.0,1,Au0.41 Ge0.59
1991,"[16783, 19307]",Au0.427Ga0.573,Au0.427Ga0.573,"{'Au': 0.427, 'Ga': 0.5730000000000001}",1.3780000000000001,1.3780000000000001,0.0,2,Au0.427 Ga0.573
1992,"[16782, 19306]",Au0.499Ga0.501,Au0.499Ga0.501,"{'Au': 0.499, 'Ga': 0.501}",1.17,1.17,0.0,2,Au0.499 Ga0.501
1993,"[16216, 16590]",La1Pt1.5Au0.5B2C1,La1Pt1.5Au0.5B2C1,"{'Au': 0.5, 'B': 2.0, 'C': 1.0, 'La': 1.0, 'Pt': 1.5}",10.65,10.65,0.0,2,La1 Pt1.5 Au0.5 B2 C1
1994,"[20623, 25037]",Ba1Pt3.5Au0.5Ge12,Ba1Pt3.5Au0.5Ge12,"{'Au': 0.5, 'Ba': 1.0, 'Ge': 12.0, 'Pt': 3.5}",5.3,5.245,0.055,2,Ba1 Pt3.5 Au0.5 Ge12
1995,[12938],Au0.5Ge0.5,Au0.5Ge0.5,"{'Au': 0.5, 'Ge': 0.5}",3.6,3.6,0.0,1,Au0.5 Ge0.5
1996,[24361],Mg1Pt0.5Au0.5Si1,Mg1Pt0.5Au0.5Si1,"{'Au': 0.5, 'Mg': 1.0, 'Pt': 0.5, 'Si': 1.0}",2.9,2.9,0.0,1,Mg1 Pt0.5 Au0.5 Si1
1997,"[14764, 18464]",Nb3Rh0.5Au0.5,Nb3Rh0.5Au0.5,"{'Au': 0.5, 'Nb': 3.0, 'Rh': 0.5}",6.6,6.6,0.0,2,Nb3 Rh0.5 Au0.5
1998,[17741],Pd0.5Au0.5Pb2,Pd0.5Au0.5Pb2,"{'Au': 0.5, 'Pb': 2.0, 'Pd': 0.5}",3.02,3.02,0.0,1,Pd0.5 Au0.5 Pb2
1999,[12953],Au0.5Rh0.4Ti0.91,Au0.5Rh0.4Ti0.91,"{'Au': 0.5, 'Rh': 0.4, 'Ti': 0.91}",3.0,3.0,0.0,1,Au0.5 Rh0.4 Ti0.91
2000,[15465],La1Pt1.5Au0.6B2C1,La1Pt1.5Au0.6B2C1,"{'Au': 0.6000000000000001, 'B': 2.0, 'C': 1.0, 'La': 1.0, 'Pt': 1.5}",10.2,10.2,0.0,1,La1 Pt1.5 Au0.6 B2 C1
2001,[17328],Nd1Pt1.5Au0.6B2C1,Nd1Pt1.5Au0.6B2C1,"{'Au': 0.6000000000000001, 'B': 2.0, 'C': 1.0, 'Nd': 1.0, 'Pt': 1.5}",3.2,3.2,0.0,1,Nd1 Pt1.5 Au0.6 B2 C1
2002,[15466],Pr1Pt1.5Au0.6B2C1,Pr1Pt1.5Au0.6B2C1,"{'Au': 0.6000000000000001, 'B': 2.0, 'C': 1.0, 'Pr': 1.0, 'Pt': 1.5}",6.0,6.0,0.0,1,Pr1 Pt1.5 Au0.6 B2 C1
2003,[15589],La1Pt1.5Au0.6B2.4C1.2,La1Pt1.5Au0.6B2.4C1.2,"{'Au': 0.6000000000000001, 'B': 2.4, 'C': 1.2, 'La': 1.0, 'Pt': 1.5}",11.0,11.0,0.0,1,La1 Pt1.5 Au0.6 B2.4 C1.2
2004,[15590],Pr1Pt1.5Au0.6B2.4C1.2,Pr1Pt1.5Au0.6B2.4C1.2,"{'Au': 0.6000000000000001, 'B': 2.4, 'C': 1.2, 'Pr': 1.0, 'Pt': 1.5}",6.2,6.2,0.0,1,Pr1 Pt1.5 Au0.6 B2.4 C1.2
2005,[15591],Y1Pt1.5Au0.6B2.4C1.2,Y1Pt1.5Au0.6B2.4C1.2,"{'Au': 0.6000000000000001, 'B': 2.4, 'C': 1.2, 'Pt': 1.5, 'Y': 1.0}",5.8,5.8,0.0,1,Y1 Pt1.5 Au0.6 B2.4 C1.2
2006,[23910],Au0.635Ge0.205Yb0.16,Au0.635Ge0.205Yb0.16,"{'Au': 0.635, 'Ge': 0.20500000000000002, 'Yb': 0.16}",0.325,0.325,0.0,1,Au0.635 Ge0.205 Yb0.16
2007,[23909],Au0.64Ge0.22Yb0.14,Au0.64Ge0.22Yb0.14,"{'Au': 0.64, 'Ge': 0.22, 'Yb': 0.14}",0.655,0.655,0.0,1,Au0.64 Ge0.22 Yb0.14
2008,[23693],Au0.65Pt0.35Te2,Au0.65Pt0.35Te2,"{'Au': 0.65, 'Pt': 0.35000000000000003, 'Te': 2.0}",4.1,4.1,0.0,1,Au0.65 Pt0.35 Te2
2009,"[11945, 11946, 12960, 15990]",Nb3Au0.7Pt0.3,Nb3Au0.7Pt0.3,"{'Au': 0.7000000000000001, 'Nb': 3.0, 'Pt': 0.30000000000000004}",13.0,11.375,1.3863170633,4,Nb3 Au0.7 Pt0.3
2010,"[14763, 18465]",Nb3Rh0.3Au0.7,Nb3Rh0.3Au0.7,"{'Au': 0.7000000000000001, 'Nb': 3.0, 'Rh': 0.30000000000000004}",9.5,9.5,0.0,2,Nb3 Rh0.3 Au0.7
2011,"[20624, 25038]",Ba1Pt3.25Au0.75Ge12,Ba1Pt3.25Au0.75Ge12,"{'Au': 0.75, 'Ba': 1.0, 'Ge': 12.0, 'Pt': 3.25}",6.25,6.25,0.0,2,Ba1 Pt3.25 Au0.75 Ge12
2012,[19783],Au0.8In0.2,Au0.8In0.2,"{'Au': 0.8, 'In': 0.2}",0.28,0.28,0.0,1,Au0.8 In0.2
2013,[19781],Au0.835Sn0.165,Au0.835Sn0.165,"{'Au': 0.835, 'Sn': 0.165}",0.59,0.59,0.0,1,Au0.835 Sn0.165
2014,[19782],Au0.84In0.16,Au0.84In0.16,"{'Au': 0.84, 'In': 0.16}",0.035,0.035,0.0,1,Au0.84 In0.16
2015,[19780],Au0.845Sn0.155,Au0.845Sn0.155,"{'Au': 0.845, 'Sn': 0.155}",0.53,0.53,0.0,1,Au0.845 Sn0.155
2016,"[16781, 19312]",Au0.85Pd0.15Ga2,Au0.85Pd0.15Ga2,"{'Au': 0.85, 'Ga': 2.0, 'Pd': 0.15}",1.79,1.79,0.0,2,Au0.85 Pd0.15 Ga2
2017,[19779],Au0.855Sn0.145,Au0.855Sn0.145,"{'Au': 0.855, 'Sn': 0.145}",0.43,0.43,0.0,1,Au0.855 Sn0.145
2018,[19778],Au0.865Sn0.135,Au0.865Sn0.135,"{'Au': 0.865, 'Sn': 0.135}",0.435,0.435,0.0,1,Au0.865 Sn0.135