,sc_id,supercon_formula,cleaned_formula,material_dict,highest_Tc,average_Tc,std_Tc,entry_count,composition
5467,"[180, 181, 793, 1347]",Y1Ba2Cu2.955Fe0.045O7-Z,Y1Ba2Cu2.955Fe0.045O7,"{'Ba': 2.0, 'Cu': 2.955, 'Fe': 0.045, 'O': 7.0, 'Y': 1.0}",86.7,75.575,10.6104606403,4,Y1 Ba2 Cu2.955 Fe0.045 O7
5468,"[9112, 10039]",Y1Ba2Cu2.955Mn0.045O7-Z,Y1Ba2Cu2.955Mn0.045O7,"{'Ba': 2.0, 'Cu': 2.955, 'Mn': 0.045, 'O': 7.0, 'Y': 1.0}",91.24,91.12,0.12,2,Y1 Ba2 Cu2.955 Mn0.045 O7
5469,[5371],Y1Ba2Cu2.955Ni0.045O6.95,Y1Ba2Cu2.955Ni0.045O6.95,"{'Ba': 2.0, 'Cu': 2.955, 'Ni': 0.045, 'O': 6.95, 'Y': 1.0}",86.2,86.2,0.0,1,Y1 Ba2 Cu2.955 Ni0.045 O6.95
5470,"[1164, 8224]",Y1Ba2Cu2.955Zn0.045O7-Z,Y1Ba2Cu2.955Zn0.045O7,"{'Ba': 2.0, 'Cu': 2.955, 'O': 7.0, 'Y': 1.0, 'Zn': 0.045}",70.1,68.55,1.55,2,Y1 Ba2 Cu2.955 Zn0.045 O7
5471,[8483],Dy1Ba2Cu2.96Fe0.04O6.89,Dy1Ba2Cu2.96Fe0.04O6.89,"{'Ba': 2.0, 'Cu': 2.96, 'Dy': 1.0, 'Fe': 0.04, 'O': 6.89}",82.0,82.0,0.0,1,Dy1 Ba2 Cu2.96 Fe0.04 O6.89
5472,[8498],Dy1Ba2Cu2.96Ni0.04O6.73,Dy1Ba2Cu2.96Ni0.04O6.73,"{'Ba': 2.0, 'Cu': 2.96, 'Dy': 1.0, 'Ni': 0.04, 'O': 6.73}",82.0,82.0,0.0,1,Dy1 Ba2 Cu2.96 Ni0.04 O6.73
5473,[8513],Dy1Ba2Cu2.96Zn0.04O6.9,Dy1Ba2Cu2.96Zn0.04O6.9,"{'Ba': 2.0, 'Cu': 2.96, 'Dy': 1.0, 'O': 6.9, 'Zn': 0.04}",70.0,70.0,0.0,1,Dy1 Ba2 Cu2.96 Zn0.04 O6.9
5474,[8435],Dy1Ba2Cu2.96Zn0.04O7-y,Dy1Ba2Cu2.96Zn0.04O7,"{'Ba': 2.0, 'Cu': 2.96, 'Dy': 1.0, 'O': 7.0, 'Zn': 0.04}",76.8,76.8,0.0,1,Dy1 Ba2 Cu2.96 Zn0.04 O7
5475,[8419],Er1Ba2Cu2.96Zn0.04O7-y,Er1Ba2Cu2.96Zn0.04O7,"{'Ba': 2.0, 'Cu': 2.96, 'Er': 1.0, 'O': 7.0, 'Zn': 0.04}",76.3,76.3,0.0,1,Er1 Ba2 Cu2.96 Zn0.04 O7
5476,[8451],Eu1Ba2Cu2.96Zn0.04O7-y,Eu1Ba2Cu2.96Zn0.04O7,"{'Ba': 2.0, 'Cu': 2.96, 'Eu': 1.0, 'O': 7.0, 'Zn': 0.04}",74.8,74.8,0.0,1,Eu1 Ba2 Cu2.96 Zn0.04 O7
5477,[8475],Sm1Ba2Cu2.96Fe0.04O6.81,Sm1Ba2Cu2.96Fe0.04O6.81,"{'Ba': 2.0, 'Cu': 2.96, 'Fe': 0.04, 'O': 6.8100000000000005, 'Sm': 1.0}",78.0,78.0,0.0,1,Sm1 Ba2 Cu2.96 Fe0.04 O6.81
5478,"[3202, 3387, 7523]",Y1Ba2Cu2.96Fe0.04O7-Z,Y1Ba2Cu2.96Fe0.04O7,"{'Ba': 2.0, 'Cu': 2.96, 'Fe': 0.04, 'O': 7.0, 'Y': 1.0}",90.5,90.0,0.4082482905,3,Y1 Ba2 Cu2.96 Fe0.04 O7
5479,[8027],Nb1Ba2Cu2.96Ga0.04O7-y,Nb1Ba2Cu2.96Ga0.04O7,"{'Ba': 2.0, 'Cu': 2.96, 'Ga': 0.04, 'Nb': 1.0, 'O': 7.0}",60.6,60.6,0.0,1,Nb1 Ba2 Cu2.96 Ga0.04 O7
5480,[8443],Gd1Ba2Cu2.96Zn0.04O7-y,Gd1Ba2Cu2.96Zn0.04O7,"{'Ba': 2.0, 'Cu': 2.96, 'Gd': 1.0, 'O': 7.0, 'Zn': 0.04}",72.7,72.7,0.0,1,Gd1 Ba2 Cu2.96 Zn0.04 O7
5481,[8467],Nd1Ba2Cu2.96Zn0.04O7-y,Nd1Ba2Cu2.96Zn0.04O7,"{'Ba': 2.0, 'Cu': 2.96, 'Nd': 1.0, 'O': 7.0, 'Zn': 0.04}",72.7,72.7,0.0,1,Nd1 Ba2 Cu2.96 Zn0.04 O7
5482,[8491],Sm1Ba2Cu2.96Ni0.04O6.88,Sm1Ba2Cu2.96Ni0.04O6.88,"{'Ba': 2.0, 'Cu': 2.96, 'Ni': 0.04, 'O': 6.88, 'Sm': 1.0}",83.0,83.0,0.0,1,Sm1 Ba2 Cu2.96 Ni0.04 O6.88
5483,[8507],Sm1Ba2Cu2.96Zn0.04O6.83,Sm1Ba2Cu2.96Zn0.04O6.83,"{'Ba': 2.0, 'Cu': 2.96, 'O': 6.83, 'Sm': 1.0, 'Zn': 0.04}",70.0,70.0,0.0,1,Sm1 Ba2 Cu2.96 Zn0.04 O6.83
5484,[8459],Sm1Ba2Cu2.96Zn0.04O7-y,Sm1Ba2Cu2.96Zn0.04O7,"{'Ba': 2.0, 'Cu': 2.96, 'O': 7.0, 'Sm': 1.0, 'Zn': 0.04}",74.5,74.5,0.0,1,Sm1 Ba2 Cu2.96 Zn0.04 O7
5485,[8427],Y1Ba2Cu2.96Zn0.04O7-y,Y1Ba2Cu2.96Zn0.04O7,"{'Ba': 2.0, 'Cu': 2.96, 'O': 7.0, 'Y': 1.0, 'Zn': 0.04}",75.1,75.1,0.0,1,Y1 Ba2 Cu2.96 Zn0.04 O7
5486,[8413],Yb1Ba2Cu2.96Zn0.04O7-y,Yb1Ba2Cu2.96Zn0.04O7,"{'Ba': 2.0, 'Cu': 2.96, 'O': 7.0, 'Yb': 1.0, 'Zn': 0.04}",73.9,73.9,0.0,1,Yb1 Ba2 Cu2.96 Zn0.04 O7
5487,[9060],Y1Ba2Cu2.961Zn0.039O6.7,Y1Ba2Cu2.961Zn0.039O6.7,"{'Ba': 2.0, 'Cu': 2.961, 'O': 6.7, 'Y': 1.0, 'Zn': 0.039}",38.0,38.0,0.0,1,Y1 Ba2 Cu2.961 Zn0.039 O6.7
5488,[9552],Y1Ba2Cu2.961Zn0.039O6.78,Y1Ba2Cu2.961Zn0.039O6.78,"{'Ba': 2.0, 'Cu': 2.961, 'O': 6.78, 'Y': 1.0, 'Zn': 0.039}",42.9,42.9,0.0,1,Y1 Ba2 Cu2.961 Zn0.039 O6.78
5489,[9627],Er1Ba2Cu2.97Fe0.03O6.94,Er1Ba2Cu2.97Fe0.03O6.94,"{'Ba': 2.0, 'Cu': 2.9699999999999998, 'Er': 1.0, 'Fe': 0.03, 'O': 6.94}",88.0,88.0,0.0,1,Er1 Ba2 Cu2.97 Fe0.03 O6.94
5490,[9621],Er1Ba2Cu2.97Zn0.03O6.93,Er1Ba2Cu2.97Zn0.03O6.93,"{'Ba': 2.0, 'Cu': 2.9699999999999998, 'Er': 1.0, 'O': 6.93, 'Zn': 0.03}",81.0,81.0,0.0,1,Er1 Ba2 Cu2.97 Zn0.03 O6.93
5491,[1454],Gd1Ba2Cu2.97Fe0.03O7-Z,Gd1Ba2Cu2.97Fe0.03O7,"{'Ba': 2.0, 'Cu': 2.9699999999999998, 'Fe': 0.03, 'Gd': 1.0, 'O': 7.0}",88.2,88.2,0.0,1,Gd1 Ba2 Cu2.97 Fe0.03 O7
5492,"[87, 743, 768, 989, 1022, 1159, 1346]",Y1Ba2Cu2.97Fe0.03O7,Y1Ba2Cu2.97Fe0.03O7,"{'Ba': 2.0, 'Cu': 2.9699999999999998, 'Fe': 0.03, 'O': 7.0, 'Y': 1.0}",91.2,87.91428571430001,3.2651530576,7,Y1 Ba2 Cu2.97 Fe0.03 O7
5493,[8026],Nd1Ba2Cu2.97Ga0.03O7-y,Nd1Ba2Cu2.97Ga0.03O7,"{'Ba': 2.0, 'Cu': 2.9699999999999998, 'Ga': 0.03, 'Nd': 1.0, 'O': 7.0}",70.5,70.5,0.0,1,Nd1 Ba2 Cu2.97 Ga0.03 O7
5494,[839],Y1Ba2Cu2.97Ga0.03O7,Y1Ba2Cu2.97Ga0.03O7,"{'Ba': 2.0, 'Cu': 2.9699999999999998, 'Ga': 0.03, 'O': 7.0, 'Y': 1.0}",90.88,90.88,0.0,1,Y1 Ba2 Cu2.97 Ga0.03 O7
5495,[11213],Y1Ba2Cu2.97Gd0.03O7-z,Y1Ba2Cu2.97Gd0.03O7,"{'Ba': 2.0, 'Cu': 2.9699999999999998, 'Gd': 0.03, 'O': 7.0, 'Y': 1.0}",40.4,40.4,0.0,1,Y1 Ba2 Cu2.97 Gd0.03 O7
5496,[9905],Y1Ba2Cu2.97Li0.03O6.6,Y1Ba2Cu2.97Li0.03O6.6,"{'Ba': 2.0, 'Cu': 2.9699999999999998, 'Li': 0.03, 'O': 6.6, 'Y': 1.0}",41.0,41.0,0.0,1,Y1 Ba2 Cu2.97 Li0.03 O6.6
5497,[9902],Y1Ba2Cu2.97Li0.03O7-Z,Y1Ba2Cu2.97Li0.03O7,"{'Ba': 2.0, 'Cu': 2.9699999999999998, 'Li': 0.03, 'O': 7.0, 'Y': 1.0}",86.0,86.0,0.0,1,Y1 Ba2 Cu2.97 Li0.03 O7
5498,"[9111, 10038]",Y1Ba2Cu2.97Mn0.03O7-Z,Y1Ba2Cu2.97Mn0.03O7,"{'Ba': 2.0, 'Cu': 2.9699999999999998, 'Mn': 0.03, 'O': 7.0, 'Y': 1.0}",91.47,91.235,0.23500000000000001,2,Y1 Ba2 Cu2.97 Mn0.03 O7
5499,[5370],Y1Ba2Cu2.97Ni0.03O6.94,Y1Ba2Cu2.97Ni0.03O6.94,"{'Ba': 2.0, 'Cu': 2.9699999999999998, 'Ni': 0.03, 'O': 6.94, 'Y': 1.0}",88.5,88.5,0.0,1,Y1 Ba2 Cu2.97 Ni0.03 O6.94
5500,[10237],Y1Ba2Cu2.97Ni0.03O7-z,Y1Ba2Cu2.97Ni0.03O7,"{'Ba': 2.0, 'Cu': 2.9699999999999998, 'Ni': 0.03, 'O': 7.0, 'Y': 1.0}",87.0,87.0,0.0,1,Y1 Ba2 Cu2.97 Ni0.03 O7
5501,[1378],Y1Ba2Cu2.97Zn0.03O6.47,Y1Ba2Cu2.97Zn0.03O6.47,"{'Ba': 2.0, 'Cu': 2.9699999999999998, 'O': 6.47, 'Y': 1.0, 'Zn': 0.03}",29.8,29.8,0.0,1,Y1 Ba2 Cu2.97 Zn0.03 O6.47
5502,[1377],Y1Ba2Cu2.97Zn0.03O6.59,Y1Ba2Cu2.97Zn0.03O6.59,"{'Ba': 2.0, 'Cu': 2.9699999999999998, 'O': 6.59, 'Y': 1.0, 'Zn': 0.03}",38.7,38.7,0.0,1,Y1 Ba2 Cu2.97 Zn0.03 O6.59
5503,"[7818, 9755]",Y1Ba2Cu2.97Zn0.03O6.63,Y1Ba2Cu2.97Zn0.03O6.63,"{'Ba': 2.0, 'Cu': 2.9699999999999998, 'O': 6.63, 'Y': 1.0, 'Zn': 0.03}",45.0,42.5,2.5,2,Y1 Ba2 Cu2.97 Zn0.03 O6.63
5504,[1380],Y1Ba2Cu2.97Zn0.03O6.67,Y1Ba2Cu2.97Zn0.03O6.67,"{'Ba': 2.0, 'Cu': 2.9699999999999998, 'O': 6.67, 'Y': 1.0, 'Zn': 0.03}",39.8,39.8,0.0,1,Y1 Ba2 Cu2.97 Zn0.03 O6.67
5505,[7975],Y1Ba2Cu2.97Zn0.03O6.68,Y1Ba2Cu2.97Zn0.03O6.68,"{'Ba': 2.0, 'Cu': 2.9699999999999998, 'O': 6.68, 'Y': 1.0, 'Zn': 0.03}",41.0,41.0,0.0,1,Y1 Ba2 Cu2.97 Zn0.03 O6.68
5506,[7974],Y1Ba2Cu2.97Zn0.03O6.7,Y1Ba2Cu2.97Zn0.03O6.7,"{'Ba': 2.0, 'Cu': 2.9699999999999998, 'O': 6.7, 'Y': 1.0, 'Zn': 0.03}",50.0,50.0,0.0,1,Y1 Ba2 Cu2.97 Zn0.03 O6.7
5507,[7973],Y1Ba2Cu2.97Zn0.03O6.75,Y1Ba2Cu2.97Zn0.03O6.75,"{'Ba': 2.0, 'Cu': 2.9699999999999998, 'O': 6.75, 'Y': 1.0, 'Zn': 0.03}",58.0,58.0,0.0,1,Y1 Ba2 Cu2.97 Zn0.03 O6.75
5508,[1376],Y1Ba2Cu2.97Zn0.03O6.76,Y1Ba2Cu2.97Zn0.03O6.76,"{'Ba': 2.0, 'Cu': 2.9699999999999998, 'O': 6.76, 'Y': 1.0, 'Zn': 0.03}",61.4,61.4,0.0,1,Y1 Ba2 Cu2.97 Zn0.03 O6.76
5509,[7972],Y1Ba2Cu2.97Zn0.03O6.77,Y1Ba2Cu2.97Zn0.03O6.77,"{'Ba': 2.0, 'Cu': 2.9699999999999998, 'O': 6.77, 'Y': 1.0, 'Zn': 0.03}",67.0,67.0,0.0,1,Y1 Ba2 Cu2.97 Zn0.03 O6.77
5510,[1379],Y1Ba2Cu2.97Zn0.03O6.85,Y1Ba2Cu2.97Zn0.03O6.85,"{'Ba': 2.0, 'Cu': 2.9699999999999998, 'O': 6.85, 'Y': 1.0, 'Zn': 0.03}",77.0,77.0,0.0,1,Y1 Ba2 Cu2.97 Zn0.03 O6.85
5511,[1375],Y1Ba2Cu2.97Zn0.03O6.9,Y1Ba2Cu2.97Zn0.03O6.9,"{'Ba': 2.0, 'Cu': 2.9699999999999998, 'O': 6.9, 'Y': 1.0, 'Zn': 0.03}",81.0,81.0,0.0,1,Y1 Ba2 Cu2.97 Zn0.03 O6.9
5512,[4315],Y1Ba2Cu2.97Ti0.03O6.92,Y1Ba2Cu2.97Ti0.03O6.92,"{'Ba': 2.0, 'Cu': 2.9699999999999998, 'O': 6.92, 'Ti': 0.03, 'Y': 1.0}",82.0,82.0,0.0,1,Y1 Ba2 Cu2.97 Ti0.03 O6.92
5513,"[5651, 9758]",Y1Ba2Cu2.97Zn0.03O6.93,Y1Ba2Cu2.97Zn0.03O6.93,"{'Ba': 2.0, 'Cu': 2.9699999999999998, 'O': 6.93, 'Y': 1.0, 'Zn': 0.03}",82.0,81.0,1.0,2,Y1 Ba2 Cu2.97 Zn0.03 O6.93
5514,"[7971, 9574]",Y1Ba2Cu2.97Zn0.03O6.95,Y1Ba2Cu2.97Zn0.03O6.95,"{'Ba': 2.0, 'Cu': 2.9699999999999998, 'O': 6.95, 'Y': 1.0, 'Zn': 0.03}",81.0,81.0,0.0,2,Y1 Ba2 Cu2.97 Zn0.03 O6.95
5515,[1374],Y1Ba2Cu2.97Zn0.03O6.97,Y1Ba2Cu2.97Zn0.03O6.97,"{'Ba': 2.0, 'Cu': 2.9699999999999998, 'O': 6.97, 'Y': 1.0, 'Zn': 0.03}",79.1,79.1,0.0,1,Y1 Ba2 Cu2.97 Zn0.03 O6.97
5516,[11153],Y1Ba2Cu2.97Zn0.03O6.98,Y1Ba2Cu2.97Zn0.03O6.98,"{'Ba': 2.0, 'Cu': 2.9699999999999998, 'O': 6.98, 'Y': 1.0, 'Zn': 0.03}",80.0,80.0,0.0,1,Y1 Ba2 Cu2.97 Zn0.03 O6.98
5517,[20037],Y1Ba2Cu2.97P0.03O7-z,Y1Ba2Cu2.97P0.03O7,"{'Ba': 2.0, 'Cu': 2.9699999999999998, 'O': 7.0, 'P': 0.03, 'Y': 1.0}",96.663,96.663,0.0,1,Y1 Ba2 Cu2.97 P0.03 O7
5518,"[803, 853, 1700, 2193, 3775, 8218, 8223, 9143]",Y1Ba2Cu2.97Zn0.03O7-Y,Y1Ba2Cu2.97Zn0.03O7,"{'Ba': 2.0, 'Cu': 2.9699999999999998, 'O': 7.0, 'Y': 1.0, 'Zn': 0.03}",83.5,77.73875,3.204841796,8,Y1 Ba2 Cu2.97 Zn0.03 O7
5519,[2965],Y1Ba2Cu2.975Ni0.025O7-Z,Y1Ba2Cu2.975Ni0.025O7,"{'Ba': 2.0, 'Cu': 2.975, 'Ni': 0.025, 'O': 7.0, 'Y': 1.0}",86.5,86.5,0.0,1,Y1 Ba2 Cu2.975 Ni0.025 O7
5520,[993],Y1Ba2Cu2.975Zn0.025O6.85,Y1Ba2Cu2.975Zn0.025O6.85,"{'Ba': 2.0, 'Cu': 2.975, 'O': 6.85, 'Y': 1.0, 'Zn': 0.025}",72.85,72.85,0.0,1,Y1 Ba2 Cu2.975 Zn0.025 O6.85
5521,[983],Y1Ba2Cu2.975Zn0.025O6.93,Y1Ba2Cu2.975Zn0.025O6.93,"{'Ba': 2.0, 'Cu': 2.975, 'O': 6.93, 'Y': 1.0, 'Zn': 0.025}",82.8,82.8,0.0,1,Y1 Ba2 Cu2.975 Zn0.025 O6.93
5522,[11152],Y1Ba2Cu2.9775Zn0.0225O6.93,Y1Ba2Cu2.9775Zn0.0225O6.93,"{'Ba': 2.0, 'Cu': 2.9775, 'O': 6.93, 'Y': 1.0, 'Zn': 0.022500000000000003}",83.0,83.0,0.0,1,Y1 Ba2 Cu2.9775 Zn0.0225 O6.93
5523,[5543],Y1Ba2Cu2.979Zn0.021O6+z,Y1Ba2Cu2.979Zn0.021O6,"{'Ba': 2.0, 'Cu': 2.979, 'O': 6.0, 'Y': 1.0, 'Zn': 0.021}",83.0,83.0,0.0,1,Y1 Ba2 Cu2.979 Zn0.021 O6
5524,"[7641, 8217]",Y1Ba2Cu2.979Zn0.021O7-d,Y1Ba2Cu2.979Zn0.021O7,"{'Ba': 2.0, 'Cu': 2.979, 'O': 7.0, 'Y': 1.0, 'Zn': 0.021}",84.0,82.1,1.9,2,Y1 Ba2 Cu2.979 Zn0.021 O7
5525,[8482],Dy1Ba2Cu2.98Fe0.02O6.88,Dy1Ba2Cu2.98Fe0.02O6.88,"{'Ba': 2.0, 'Cu': 2.98, 'Dy': 1.0, 'Fe': 0.02, 'O': 6.88}",88.0,88.0,0.0,1,Dy1 Ba2 Cu2.98 Fe0.02 O6.88
5526,[8497],Dy1Ba2Cu2.98Ni0.02O6.72,Dy1Ba2Cu2.98Ni0.02O6.72,"{'Ba': 2.0, 'Cu': 2.98, 'Dy': 1.0, 'Ni': 0.02, 'O': 6.72}",83.0,83.0,0.0,1,Dy1 Ba2 Cu2.98 Ni0.02 O6.72
5527,[8512],Dy1Ba2Cu2.98Zn0.02O6.87,Dy1Ba2Cu2.98Zn0.02O6.87,"{'Ba': 2.0, 'Cu': 2.98, 'Dy': 1.0, 'O': 6.87, 'Zn': 0.02}",81.0,81.0,0.0,1,Dy1 Ba2 Cu2.98 Zn0.02 O6.87
5528,"[3393, 8434]",Dy1Ba2Cu2.98Zn0.02O7-z,Dy1Ba2Cu2.98Zn0.02O7,"{'Ba': 2.0, 'Cu': 2.98, 'Dy': 1.0, 'O': 7.0, 'Zn': 0.02}",84.8,84.8,0.0,2,Dy1 Ba2 Cu2.98 Zn0.02 O7
5529,"[3391, 8418]",Er1Ba2Cu2.98Zn0.02O7-z,Er1Ba2Cu2.98Zn0.02O7,"{'Ba': 2.0, 'Cu': 2.98, 'Er': 1.0, 'O': 7.0, 'Zn': 0.02}",85.5,85.15,0.35000000000000003,2,Er1 Ba2 Cu2.98 Zn0.02 O7
5530,"[3395, 8450]",Eu1Ba2Cu2.98Zn0.02O7-z,Eu1Ba2Cu2.98Zn0.02O7,"{'Ba': 2.0, 'Cu': 2.98, 'Eu': 1.0, 'O': 7.0, 'Zn': 0.02}",86.3,86.15,0.15,2,Eu1 Ba2 Cu2.98 Zn0.02 O7
5531,[8474],Sm1Ba2Cu2.98Fe0.02O6.76,Sm1Ba2Cu2.98Fe0.02O6.76,"{'Ba': 2.0, 'Cu': 2.98, 'Fe': 0.02, 'O': 6.76, 'Sm': 1.0}",84.0,84.0,0.0,1,Sm1 Ba2 Cu2.98 Fe0.02 O6.76
5532,"[222, 463]",Y1Ba2Cu2.98Fe0.02O6.93,Y1Ba2Cu2.98Fe0.02O6.93,"{'Ba': 2.0, 'Cu': 2.98, 'Fe': 0.02, 'O': 6.93, 'Y': 1.0}",91.8,90.4,1.4,2,Y1 Ba2 Cu2.98 Fe0.02 O6.93
5533,"[3386, 3767]",Y1Ba2Cu2.98Fe0.02O7-z,Y1Ba2Cu2.98Fe0.02O7,"{'Ba': 2.0, 'Cu': 2.98, 'Fe': 0.02, 'O': 7.0, 'Y': 1.0}",93.4,92.05,1.35,2,Y1 Ba2 Cu2.98 Fe0.02 O7
5534,[8025],Nb1Ba2Cu2.98Ga0.02O7-y,Nb1Ba2Cu2.98Ga0.02O7,"{'Ba': 2.0, 'Cu': 2.98, 'Ga': 0.02, 'Nb': 1.0, 'O': 7.0}",80.2,80.2,0.0,1,Nb1 Ba2 Cu2.98 Ga0.02 O7
5535,[11212],Y1Ba2Cu2.98Gd0.02O7-z,Y1Ba2Cu2.98Gd0.02O7,"{'Ba': 2.0, 'Cu': 2.98, 'Gd': 0.02, 'O': 7.0, 'Y': 1.0}",42.5,42.5,0.0,1,Y1 Ba2 Cu2.98 Gd0.02 O7
5536,"[3394, 8442]",Gd1Ba2Cu2.98Zn0.02O7-z,Gd1Ba2Cu2.98Zn0.02O7,"{'Ba': 2.0, 'Cu': 2.98, 'Gd': 1.0, 'O': 7.0, 'Zn': 0.02}",86.3,86.15,0.15,2,Gd1 Ba2 Cu2.98 Zn0.02 O7
5537,"[3397, 8466]",Nd1Ba2Cu2.98Zn0.02O7-z,Nd1Ba2Cu2.98Zn0.02O7,"{'Ba': 2.0, 'Cu': 2.98, 'Nd': 1.0, 'O': 7.0, 'Zn': 0.02}",86.0,85.75,0.25,2,Nd1 Ba2 Cu2.98 Zn0.02 O7
5538,[9586],Y1Ba2Cu2.98Ni0.02O6.94,Y1Ba2Cu2.98Ni0.02O6.94,"{'Ba': 2.0, 'Cu': 2.98, 'Ni': 0.02, 'O': 6.94, 'Y': 1.0}",86.0,86.0,0.0,1,Y1 Ba2 Cu2.98 Ni0.02 O6.94
5539,[9582],Y1Ba2Cu2.98Ni0.02O6.95,Y1Ba2Cu2.98Ni0.02O6.95,"{'Ba': 2.0, 'Cu': 2.98, 'Ni': 0.02, 'O': 6.95, 'Y': 1.0}",87.5,87.5,0.0,1,Y1 Ba2 Cu2.98 Ni0.02 O6.95
5540,[8490],Sm1Ba2Cu2.98Ni0.02O7-z,Sm1Ba2Cu2.98Ni0.02O7,"{'Ba': 2.0, 'Cu': 2.98, 'Ni': 0.02, 'O': 7.0, 'Sm': 1.0}",83.0,83.0,0.0,1,Sm1 Ba2 Cu2.98 Ni0.02 O7
5541,[897],Y1Ba2Cu2.98Ni0.02O7,Y1Ba2Cu2.98Ni0.02O7,"{'Ba': 2.0, 'Cu': 2.98, 'Ni': 0.02, 'O': 7.0, 'Y': 1.0}",91.6,91.6,0.0,1,Y1 Ba2 Cu2.98 Ni0.02 O7
5542,[460],Y1Ba2Cu2.98Zr0.2O6.75,Y1Ba2Cu2.98Zr0.2O6.75,"{'Ba': 2.0, 'Cu': 2.98, 'O': 6.75, 'Y': 1.0, 'Zr': 0.2}",89.8,89.8,0.0,1,Y1 Ba2 Cu2.98 Zr0.2 O6.75
5543,[8506],Sm1Ba2Cu2.98Zn0.02O6.82,Sm1Ba2Cu2.98Zn0.02O6.82,"{'Ba': 2.0, 'Cu': 2.98, 'O': 6.82, 'Sm': 1.0, 'Zn': 0.02}",81.0,81.0,0.0,1,Sm1 Ba2 Cu2.98 Zn0.02 O6.82
5544,[458],Y1Ba2Cu2.98Zr0.02O6.84,Y1Ba2Cu2.98Zr0.02O6.84,"{'Ba': 2.0, 'Cu': 2.98, 'O': 6.84, 'Y': 1.0, 'Zr': 0.02}",90.2,90.2,0.0,1,Y1 Ba2 Cu2.98 Zr0.02 O6.84
5545,"[3396, 8458]",Sm1Ba2Cu2.98Zn0.02O7-z,Sm1Ba2Cu2.98Zn0.02O7,"{'Ba': 2.0, 'Cu': 2.98, 'O': 7.0, 'Sm': 1.0, 'Zn': 0.02}",86.3,86.3,0.0,2,Sm1 Ba2 Cu2.98 Zn0.02 O7
5546,"[3392, 8426, 9142]",Y1Ba2Cu2.98Zn0.02O7-z,Y1Ba2Cu2.98Zn0.02O7,"{'Ba': 2.0, 'Cu': 2.98, 'O': 7.0, 'Y': 1.0, 'Zn': 0.02}",85.0,84.8333333333,0.12472191290000001,3,Y1 Ba2 Cu2.98 Zn0.02 O7
5547,"[3390, 8412]",Yb1Ba2Cu2.98Zn0.02O7-z,Yb1Ba2Cu2.98Zn0.02O7,"{'Ba': 2.0, 'Cu': 2.98, 'O': 7.0, 'Yb': 1.0, 'Zn': 0.02}",83.3,83.3,0.0,2,Yb1 Ba2 Cu2.98 Zn0.02 O7
5548,[10243],Y1Ba2Cu2.982Zn0.018O6.75,Y1Ba2Cu2.982Zn0.018O6.75,"{'Ba': 2.0, 'Cu': 2.982, 'O': 6.75, 'Y': 1.0, 'Zn': 0.018000000000000002}",57.8,57.8,0.0,1,Y1 Ba2 Cu2.982 Zn0.018 O6.75
5549,[9551],Y1Ba2Cu2.982Zn0.018O6.78,Y1Ba2Cu2.982Zn0.018O6.78,"{'Ba': 2.0, 'Cu': 2.982, 'O': 6.78, 'Y': 1.0, 'Zn': 0.018000000000000002}",56.0,56.0,0.0,1,Y1 Ba2 Cu2.982 Zn0.018 O6.78
5550,[9823],Y1Ba2Cu2.982Zn0.018O6.9,Y1Ba2Cu2.982Zn0.018O6.9,"{'Ba': 2.0, 'Cu': 2.982, 'O': 6.9, 'Y': 1.0, 'Zn': 0.018000000000000002}",89.2,89.2,0.0,1,Y1 Ba2 Cu2.982 Zn0.018 O6.9
5551,[10143],Yb1Ba2Cu2.982Zn0.018O6.9,Yb1Ba2Cu2.982Zn0.018O6.9,"{'Ba': 2.0, 'Cu': 2.982, 'O': 6.9, 'Yb': 1.0, 'Zn': 0.018000000000000002}",85.1,85.1,0.0,1,Yb1 Ba2 Cu2.982 Zn0.018 O6.9
5552,[10240],Y1Ba2Cu2.982Zn0.018O7-z,Y1Ba2Cu2.982Zn0.018O7,"{'Ba': 2.0, 'Cu': 2.982, 'O': 7.0, 'Y': 1.0, 'Zn': 0.018000000000000002}",82.0,82.0,0.0,1,Y1 Ba2 Cu2.982 Zn0.018 O7
5553,[3465],Y1Ba2Cu2.984Zn0.016O7-z,Y1Ba2Cu2.984Zn0.016O7,"{'Ba': 2.0, 'Cu': 2.984, 'O': 7.0, 'Y': 1.0, 'Zn': 0.016}",84.0,84.0,0.0,1,Y1 Ba2 Cu2.984 Zn0.016 O7
5554,[8141],Er1Ba2Cu2.985Fe0.015O7-d,Er1Ba2Cu2.985Fe0.015O7,"{'Ba': 2.0, 'Cu': 2.985, 'Er': 1.0, 'Fe': 0.015, 'O': 7.0}",88.7,88.7,0.0,1,Er1 Ba2 Cu2.985 Fe0.015 O7
5555,[8144],Er1Ba2Cu2.985Ga0.015O7-d,Er1Ba2Cu2.985Ga0.015O7,"{'Ba': 2.0, 'Cu': 2.985, 'Er': 1.0, 'Ga': 0.015, 'O': 7.0}",89.5,89.5,0.0,1,Er1 Ba2 Cu2.985 Ga0.015 O7
5556,[8143],Er1Ba2Cu2.985Ni0.015O7-d,Er1Ba2Cu2.985Ni0.015O7,"{'Ba': 2.0, 'Cu': 2.985, 'Er': 1.0, 'Ni': 0.015, 'O': 7.0}",89.8,89.8,0.0,1,Er1 Ba2 Cu2.985 Ni0.015 O7
5557,"[1345, 7522]",Y1Ba2Cu2.985Fe0.015O7-Z,Y1Ba2Cu2.985Fe0.015O7,"{'Ba': 2.0, 'Cu': 2.985, 'Fe': 0.015, 'O': 7.0, 'Y': 1.0}",91.5,90.75,0.75,2,Y1 Ba2 Cu2.985 Fe0.015 O7
5558,[5369],Y1Ba2Cu2.985Ni0.015O6.92,Y1Ba2Cu2.985Ni0.015O6.92,"{'Ba': 2.0, 'Cu': 2.985, 'Ni': 0.015, 'O': 6.92, 'Y': 1.0}",90.5,90.5,0.0,1,Y1 Ba2 Cu2.985 Ni0.015 O6.92
5559,[11151],Y1Ba2Cu2.985Zn0.015O6.95,Y1Ba2Cu2.985Zn0.015O6.95,"{'Ba': 2.0, 'Cu': 2.985, 'O': 6.95, 'Y': 1.0, 'Zn': 0.015}",86.0,86.0,0.0,1,Y1 Ba2 Cu2.985 Zn0.015 O6.95
5560,"[3774, 8222]",Y1Ba2Cu2.985Zn0.015O7,Y1Ba2Cu2.985Zn0.015O7,"{'Ba': 2.0, 'Cu': 2.985, 'O': 7.0, 'Y': 1.0, 'Zn': 0.015}",83.2,81.6,1.6,2,Y1 Ba2 Cu2.985 Zn0.015 O7
5561,[10242],Y1Ba2Cu2.988Zn0.012O6.75,Y1Ba2Cu2.988Zn0.012O6.75,"{'Ba': 2.0, 'Cu': 2.988, 'O': 6.75, 'Y': 1.0, 'Zn': 0.012}",62.0,62.0,0.0,1,Y1 Ba2 Cu2.988 Zn0.012 O6.75
5562,[10239],Y1Ba2Cu2.988Zn0.012O7-z,Y1Ba2Cu2.988Zn0.012O7,"{'Ba': 2.0, 'Cu': 2.988, 'O': 7.0, 'Y': 1.0, 'Zn': 0.012}",85.0,85.0,0.0,1,Y1 Ba2 Cu2.988 Zn0.012 O7
5563,[8433],Dy1Ba2Cu2.99Zn0.01O7-y,Dy1Ba2Cu2.99Zn0.01O7,"{'Ba': 2.0, 'Cu': 2.99, 'Dy': 1.0, 'O': 7.0, 'Zn': 0.01}",89.5,89.5,0.0,1,Dy1 Ba2 Cu2.99 Zn0.01 O7
5564,[8417],Er1Ba2Cu2.99Zn0.01O7-y,Er1Ba2Cu2.99Zn0.01O7,"{'Ba': 2.0, 'Cu': 2.99, 'Er': 1.0, 'O': 7.0, 'Zn': 0.01}",89.8,89.8,0.0,1,Er1 Ba2 Cu2.99 Zn0.01 O7
5565,[8449],Eu1Ba2Cu2.99Zn0.01O7-y,Eu1Ba2Cu2.99Zn0.01O7,"{'Ba': 2.0, 'Cu': 2.99, 'Eu': 1.0, 'O': 7.0, 'Zn': 0.01}",91.3,91.3,0.0,1,Eu1 Ba2 Cu2.99 Zn0.01 O7
5566,[8024],Nd1Ba2Cu2.99Ga0.01O7-y,Nd1Ba2Cu2.99Ga0.01O7,"{'Ba': 2.0, 'Cu': 2.99, 'Ga': 0.01, 'Nd': 1.0, 'O': 7.0}",81.2,81.2,0.0,1,Nd1 Ba2 Cu2.99 Ga0.01 O7
5567,[11211],Y1Ba2Cu2.99Gd0.01O7-z,Y1Ba2Cu2.99Gd0.01O7,"{'Ba': 2.0, 'Cu': 2.99, 'Gd': 0.01, 'O': 7.0, 'Y': 1.0}",44.4,44.4,0.0,1,Y1 Ba2 Cu2.99 Gd0.01 O7
5568,[8441],Gd1Ba2Cu2.99Zn0.01O7-y,Gd1Ba2Cu2.99Zn0.01O7,"{'Ba': 2.0, 'Cu': 2.99, 'Gd': 1.0, 'O': 7.0, 'Zn': 0.01}",89.8,89.8,0.0,1,Gd1 Ba2 Cu2.99 Zn0.01 O7
5569,[8465],Nd1Ba2Cu2.99Zn0.01O7-y,Nd1Ba2Cu2.99Zn0.01O7,"{'Ba': 2.0, 'Cu': 2.99, 'Nd': 1.0, 'O': 7.0, 'Zn': 0.01}",94.5,94.5,0.0,1,Nd1 Ba2 Cu2.99 Zn0.01 O7
5570,[5542],Y1Ba2Cu2.99Zn0.01O6+z,Y1Ba2Cu2.99Zn0.01O6,"{'Ba': 2.0, 'Cu': 2.99, 'O': 6.0, 'Y': 1.0, 'Zn': 0.01}",89.0,89.0,0.0,1,Y1 Ba2 Cu2.99 Zn0.01 O6
5571,[8457],Sm1Ba2Cu2.99Zn0.01O7-y,Sm1Ba2Cu2.99Zn0.01O7,"{'Ba': 2.0, 'Cu': 2.99, 'O': 7.0, 'Sm': 1.0, 'Zn': 0.01}",91.3,91.3,0.0,1,Sm1 Ba2 Cu2.99 Zn0.01 O7
5572,"[8425, 9141]",Y1Ba2Cu2.99Zn0.01O7-y,Y1Ba2Cu2.99Zn0.01O7,"{'Ba': 2.0, 'Cu': 2.99, 'O': 7.0, 'Y': 1.0, 'Zn': 0.01}",88.6,87.55,1.05,2,Y1 Ba2 Cu2.99 Zn0.01 O7
5573,[8411],Yb1Ba2Cu2.99Zn0.01O7-y,Yb1Ba2Cu2.99Zn0.01O7,"{'Ba': 2.0, 'Cu': 2.99, 'O': 7.0, 'Yb': 1.0, 'Zn': 0.01}",87.8,87.8,0.0,1,Yb1 Ba2 Cu2.99 Zn0.01 O7
5574,[9573],Y1Ba2Cu2.9907Zn0.0093O6.95,Y1Ba2Cu2.9907Zn0.0093O6.95,"{'Ba': 2.0, 'Cu': 2.9907, 'O': 6.95, 'Y': 1.0, 'Zn': 0.009300000000000001}",88.0,88.0,0.0,1,Y1 Ba2 Cu2.9907 Zn0.0093 O6.95
5575,[11150],Y1Ba2Cu2.9925Zn0.0075O6.92,Y1Ba2Cu2.9925Zn0.0075O6.92,"{'Ba': 2.0, 'Cu': 2.9925, 'O': 6.92, 'Y': 1.0, 'Zn': 0.007500000000000001}",88.0,88.0,0.0,1,Y1 Ba2 Cu2.9925 Zn0.0075 O6.92
5576,[8221],Y1Ba2Cu2.993Zn0.007O7,Y1Ba2Cu2.993Zn0.007O7,"{'Ba': 2.0, 'Cu': 2.993, 'O': 7.0, 'Y': 1.0, 'Zn': 0.007}",84.0,84.0,0.0,1,Y1 Ba2 Cu2.993 Zn0.007 O7
5577,[464],Y1Ba2Cu2.994Zn0.006O6.63,Y1Ba2Cu2.994Zn0.006O6.63,"{'Ba': 2.0, 'Cu': 2.9939999999999998, 'O': 6.63, 'Y': 1.0, 'Zn': 0.006}",60.0,60.0,0.0,1,Y1 Ba2 Cu2.994 Zn0.006 O6.63
5578,[9572],Y1Ba2Cu2.9955Zn0.0045O6.95,Y1Ba2Cu2.9955Zn0.0045O6.95,"{'Ba': 2.0, 'Cu': 2.9955, 'O': 6.95, 'Y': 1.0, 'Zn': 0.0045000000000000005}",90.0,90.0,0.0,1,Y1 Ba2 Cu2.9955 Zn0.0045 O6.95
5579,[2725],Dy0.5Pr0.5Ba2Cu3O6.85,Dy0.5Pr0.5Ba2Cu3O6.85,"{'Ba': 2.0, 'Cu': 3.0, 'Dy': 0.5, 'O': 6.85, 'Pr': 0.5}",19.0,19.0,0.0,1,Dy0.5 Pr0.5 Ba2 Cu3 O6.85
5580,[5126],Dy0.5Pr0.5Ba2Cu3O6.9,Dy0.5Pr0.5Ba2Cu3O6.9,"{'Ba': 2.0, 'Cu': 3.0, 'Dy': 0.5, 'O': 6.9, 'Pr': 0.5}",27.8,27.8,0.0,1,Dy0.5 Pr0.5 Ba2 Cu3 O6.9
5581,[5125],Dy0.6Pr0.4Ba2Cu3O6.9,Dy0.6Pr0.4Ba2Cu3O6.9,"{'Ba': 2.0, 'Cu': 3.0, 'Dy': 0.6000000000000001, 'O': 6.9, 'Pr': 0.4}",41.2,41.2,0.0,1,Dy0.6 Pr0.4 Ba2 Cu3 O6.9
5582,[5124],Dy0.7Pr0.3Ba2Cu3O6.9,Dy0.7Pr0.3Ba2Cu3O6.9,"{'Ba': 2.0, 'Cu': 3.0, 'Dy': 0.7000000000000001, 'O': 6.9, 'Pr': 0.30000000000000004}",53.9,53.9,0.0,1,Dy0.7 Pr0.3 Ba2 Cu3 O6.9
5583,"[1901, 6812, 8601]",Dy0.8Pr0.2Ba2Cu3O7-Z,Dy0.8Pr0.2Ba2Cu3O7,"{'Ba': 2.0, 'Cu': 3.0, 'Dy': 0.8, 'O': 7.0, 'Pr': 0.2}",72.0,69.2666666667,2.1669230618,3,Dy0.8 Pr0.2 Ba2 Cu3 O7
5584,[5123],Dy0.85Pr0.15Ba2Cu3O6.9,Dy0.85Pr0.15Ba2Cu3O6.9,"{'Ba': 2.0, 'Cu': 3.0, 'Dy': 0.85, 'O': 6.9, 'Pr': 0.15}",77.4,77.4,0.0,1,Dy0.85 Pr0.15 Ba2 Cu3 O6.9