,sc_id,supercon_formula,cleaned_formula,material_dict,highest_Tc,average_Tc,std_Tc,entry_count,composition
6107,[1759],Y0.4Pr0.6Ba2Cu3O6.95,Y0.4Pr0.6Ba2Cu3O6.95,"{'Ba': 2.0, 'Cu': 3.0, 'O': 6.95, 'Pr': 0.6000000000000001, 'Y': 0.4}",9.0,9.0,0.0,1,Y0.4 Pr0.6 Ba2 Cu3 O6.95
6108,"[2639, 7027, 8537]",Sm1Ba2Cu3O6.95,Sm1Ba2Cu3O6.95,"{'Ba': 2.0, 'Cu': 3.0, 'O': 6.95, 'Sm': 1.0}",95.0,88.1333333333,6.5040158535,3,Sm1 Ba2 Cu3 O6.95
6109,"[2643, 20041]",Tm1Ba2Cu3O6.95,Tm1Ba2Cu3O6.95,"{'Ba': 2.0, 'Cu': 3.0, 'O': 6.95, 'Tm': 1.0}",89.93,89.465,0.465,2,Tm1 Ba2 Cu3 O6.95
6110,"[653, 829, 1036, 1426, 1755, 1764, 2378, 2839, 3672, 4392, 5011, 5608, 6564, 6785, 7010, 7449, 7771, 7926, 7965, 7969, 8189, 8361, 8742, 8756, 8826, 8827, 9368, 9431, 9566, 9571, 9901, 10011, 10481]",Y1Ba2Cu3O6.95,Y1Ba2Cu3O6.95,"{'Ba': 2.0, 'Cu': 3.0, 'O': 6.95, 'Y': 1.0}",93.5,91.8027272727,1.8422306517,33,Y1 Ba2 Cu3 O6.95
6111,[3623],Yb1Ba2Cu3O6.95,Yb1Ba2Cu3O6.95,"{'Ba': 2.0, 'Cu': 3.0, 'O': 6.95, 'Yb': 1.0}",88.4,88.4,0.0,1,Yb1 Ba2 Cu3 O6.95
6112,[20608],Y1Ba2Cu3O6.951,Y1Ba2Cu3O6.951,"{'Ba': 2.0, 'Cu': 3.0, 'O': 6.9510000000000005, 'Y': 1.0}",91.19,91.19,0.0,1,Y1 Ba2 Cu3 O6.951
6113,[20614],Y0.45Pr0.55Ba2Cu3O6.953,Y0.45Pr0.55Ba2Cu3O6.953,"{'Ba': 2.0, 'Cu': 3.0, 'O': 6.953, 'Pr': 0.55, 'Y': 0.45}",14.4,14.4,0.0,1,Y0.45 Pr0.55 Ba2 Cu3 O6.953
6114,[8111],Y1Ba2Cu3O6.955,Y1Ba2Cu3O6.955,"{'Ba': 2.0, 'Cu': 3.0, 'O': 6.955, 'Y': 1.0}",91.8,91.8,0.0,1,Y1 Ba2 Cu3 O6.955
6115,[10577],Y1Ba2Cu3O6.957,Y1Ba2Cu3O6.957,"{'Ba': 2.0, 'Cu': 3.0, 'O': 6.957, 'Y': 1.0}",91.0,91.0,0.0,1,Y1 Ba2 Cu3 O6.957
6116,"[4928, 6617]",Y0.95Pr0.05Ba2Cu3O6.96,Y0.95Pr0.05Ba2Cu3O6.96,"{'Ba': 2.0, 'Cu': 3.0, 'O': 6.96, 'Pr': 0.05, 'Y': 0.9500000000000001}",91.5,89.5,2.0,2,Y0.95 Pr0.05 Ba2 Cu3 O6.96
6117,[6618],Y0.9Pr0.1Ba2Cu3O6.96,Y0.9Pr0.1Ba2Cu3O6.96,"{'Ba': 2.0, 'Cu': 3.0, 'O': 6.96, 'Pr': 0.1, 'Y': 0.9}",83.0,83.0,0.0,1,Y0.9 Pr0.1 Ba2 Cu3 O6.96
6118,"[4931, 6619]",Y0.8Pr0.2Ba2Cu3O6.96,Y0.8Pr0.2Ba2Cu3O6.96,"{'Ba': 2.0, 'Cu': 3.0, 'O': 6.96, 'Pr': 0.2, 'Y': 0.8}",74.7,72.35,2.35,2,Y0.8 Pr0.2 Ba2 Cu3 O6.96
6119,[6620],Y0.7Pr0.3Ba2Cu3O6.96,Y0.7Pr0.3Ba2Cu3O6.96,"{'Ba': 2.0, 'Cu': 3.0, 'O': 6.96, 'Pr': 0.30000000000000004, 'Y': 0.7000000000000001}",57.0,57.0,0.0,1,Y0.7 Pr0.3 Ba2 Cu3 O6.96
6120,[6621],Y0.6Pr0.4Ba2Cu3O6.96,Y0.6Pr0.4Ba2Cu3O6.96,"{'Ba': 2.0, 'Cu': 3.0, 'O': 6.96, 'Pr': 0.4, 'Y': 0.6000000000000001}",32.0,32.0,0.0,1,Y0.6 Pr0.4 Ba2 Cu3 O6.96
6121,[6622],Y0.5Pr0.5Ba2Cu3O6.96,Y0.5Pr0.5Ba2Cu3O6.96,"{'Ba': 2.0, 'Cu': 3.0, 'O': 6.96, 'Pr': 0.5, 'Y': 0.5}",12.0,12.0,0.0,1,Y0.5 Pr0.5 Ba2 Cu3 O6.96
6122,[4935],Y0.47Pr0.53Ba2Cu3O6.96,Y0.47Pr0.53Ba2Cu3O6.96,"{'Ba': 2.0, 'Cu': 3.0, 'O': 6.96, 'Pr': 0.53, 'Y': 0.47000000000000003}",13.5,13.5,0.0,1,Y0.47 Pr0.53 Ba2 Cu3 O6.96
6123,[20043],Tm1Ba2Cu3O6.96,Tm1Ba2Cu3O6.96,"{'Ba': 2.0, 'Cu': 3.0, 'O': 6.96, 'Tm': 1.0}",89.88,89.88,0.0,1,Tm1 Ba2 Cu3 O6.96
6124,"[526, 629, 684, 3549, 4891, 4909, 4927, 5386, 6208, 6616, 6923, 7513, 7928, 8613, 9866, 9960, 9964]",Y1Ba2Cu3O6.96,Y1Ba2Cu3O6.96,"{'Ba': 2.0, 'Cu': 3.0, 'O': 6.96, 'Y': 1.0}",92.3,90.2558823529,1.9612332819,17,Y1 Ba2 Cu3 O6.96
6125,"[569, 8110]",Y1Ba2Cu3O6.962,Y1Ba2Cu3O6.962,"{'Ba': 2.0, 'Cu': 3.0, 'O': 6.962, 'Y': 1.0}",92.2,92.15,0.05,2,Y1 Ba2 Cu3 O6.962
6126,[9376],Y0.95Pr0.05Ba2Cu3O6.965,Y0.95Pr0.05Ba2Cu3O6.965,"{'Ba': 2.0, 'Cu': 3.0, 'O': 6.965, 'Pr': 0.05, 'Y': 0.9500000000000001}",88.0,88.0,0.0,1,Y0.95 Pr0.05 Ba2 Cu3 O6.965
6127,[9377],Y0.9Pr0.1Ba2Cu3O6.965,Y0.9Pr0.1Ba2Cu3O6.965,"{'Ba': 2.0, 'Cu': 3.0, 'O': 6.965, 'Pr': 0.1, 'Y': 0.9}",85.0,85.0,0.0,1,Y0.9 Pr0.1 Ba2 Cu3 O6.965
6128,[9378],Y0.8Pr0.2Ba2Cu3O6.965,Y0.8Pr0.2Ba2Cu3O6.965,"{'Ba': 2.0, 'Cu': 3.0, 'O': 6.965, 'Pr': 0.2, 'Y': 0.8}",70.0,70.0,0.0,1,Y0.8 Pr0.2 Ba2 Cu3 O6.965
6129,[9379],Y0.7Pr0.3Ba2Cu3O6.965,Y0.7Pr0.3Ba2Cu3O6.965,"{'Ba': 2.0, 'Cu': 3.0, 'O': 6.965, 'Pr': 0.30000000000000004, 'Y': 0.7000000000000001}",55.0,55.0,0.0,1,Y0.7 Pr0.3 Ba2 Cu3 O6.965
6130,[9380],Y0.6Pr0.4Ba2Cu3O6.965,Y0.6Pr0.4Ba2Cu3O6.965,"{'Ba': 2.0, 'Cu': 3.0, 'O': 6.965, 'Pr': 0.4, 'Y': 0.6000000000000001}",35.0,35.0,0.0,1,Y0.6 Pr0.4 Ba2 Cu3 O6.965
6131,[9381],Y0.5Pr0.5Ba2Cu3O6.965,Y0.5Pr0.5Ba2Cu3O6.965,"{'Ba': 2.0, 'Cu': 3.0, 'O': 6.965, 'Pr': 0.5, 'Y': 0.5}",10.0,10.0,0.0,1,Y0.5 Pr0.5 Ba2 Cu3 O6.965
6132,[9375],Y1Ba2Cu3O6.965,Y1Ba2Cu3O6.965,"{'Ba': 2.0, 'Cu': 3.0, 'O': 6.965, 'Y': 1.0}",88.5,88.5,0.0,1,Y1 Ba2 Cu3 O6.965
6133,[1422],Y0.95Pr0.05Ba2Cu3O6.97,Y0.95Pr0.05Ba2Cu3O6.97,"{'Ba': 2.0, 'Cu': 3.0, 'O': 6.97, 'Pr': 0.05, 'Y': 0.9500000000000001}",91.5,91.5,0.0,1,Y0.95 Pr0.05 Ba2 Cu3 O6.97
6134,[8618],Yb0.995Pr0.05Ba2Cu3O6.97,Yb0.995Pr0.05Ba2Cu3O6.97,"{'Ba': 2.0, 'Cu': 3.0, 'O': 6.97, 'Pr': 0.05, 'Yb': 0.995}",89.5,89.5,0.0,1,Yb0.995 Pr0.05 Ba2 Cu3 O6.97
6135,[8619],Yb0.925Pr0.075Ba2Cu3O6.97,Yb0.925Pr0.075Ba2Cu3O6.97,"{'Ba': 2.0, 'Cu': 3.0, 'O': 6.97, 'Pr': 0.075, 'Yb': 0.925}",89.0,89.0,0.0,1,Yb0.925 Pr0.075 Ba2 Cu3 O6.97
6136,[4929],Y0.9Pr0.1Ba2Cu3O6.97,Y0.9Pr0.1Ba2Cu3O6.97,"{'Ba': 2.0, 'Cu': 3.0, 'O': 6.97, 'Pr': 0.1, 'Y': 0.9}",88.1,88.1,0.0,1,Y0.9 Pr0.1 Ba2 Cu3 O6.97
6137,[8620],Yb0.9Pr0.1Ba2Cu3O6.97,Yb0.9Pr0.1Ba2Cu3O6.97,"{'Ba': 2.0, 'Cu': 3.0, 'O': 6.97, 'Pr': 0.1, 'Yb': 0.9}",88.5,88.5,0.0,1,Yb0.9 Pr0.1 Ba2 Cu3 O6.97
6138,[4930],Y0.85Pr0.15Ba2Cu3O6.97,Y0.85Pr0.15Ba2Cu3O6.97,"{'Ba': 2.0, 'Cu': 3.0, 'O': 6.97, 'Pr': 0.15, 'Y': 0.85}",81.8,81.8,0.0,1,Y0.85 Pr0.15 Ba2 Cu3 O6.97
6139,[8621],Yb0.85Pr0.15Ba2Cu3O6.97,Yb0.85Pr0.15Ba2Cu3O6.97,"{'Ba': 2.0, 'Cu': 3.0, 'O': 6.97, 'Pr': 0.15, 'Yb': 0.85}",86.5,86.5,0.0,1,Yb0.85 Pr0.15 Ba2 Cu3 O6.97
6140,[8622],Yb0.8Pr0.2Ba2Cu3O6.97,Yb0.8Pr0.2Ba2Cu3O6.97,"{'Ba': 2.0, 'Cu': 3.0, 'O': 6.97, 'Pr': 0.2, 'Yb': 0.8}",82.0,82.0,0.0,1,Yb0.8 Pr0.2 Ba2 Cu3 O6.97
6141,[4932],Y0.7Pr0.3Ba2Cu3O6.97,Y0.7Pr0.3Ba2Cu3O6.97,"{'Ba': 2.0, 'Cu': 3.0, 'O': 6.97, 'Pr': 0.30000000000000004, 'Y': 0.7000000000000001}",59.3,59.3,0.0,1,Y0.7 Pr0.3 Ba2 Cu3 O6.97
6142,[8623],Yb0.7Pr0.3Ba2Cu3O6.97,Yb0.7Pr0.3Ba2Cu3O6.97,"{'Ba': 2.0, 'Cu': 3.0, 'O': 6.97, 'Pr': 0.30000000000000004, 'Yb': 0.7000000000000001}",73.5,73.5,0.0,1,Yb0.7 Pr0.3 Ba2 Cu3 O6.97
6143,[1423],Y0.6Pr0.4Ba2Cu3O6.97,Y0.6Pr0.4Ba2Cu3O6.97,"{'Ba': 2.0, 'Cu': 3.0, 'O': 6.97, 'Pr': 0.4, 'Y': 0.6000000000000001}",40.0,40.0,0.0,1,Y0.6 Pr0.4 Ba2 Cu3 O6.97
6144,"[1384, 2011, 3795, 5610, 8109]",Y1Ba2Cu3O6.97,Y1Ba2Cu3O6.97,"{'Ba': 2.0, 'Cu': 3.0, 'O': 6.97, 'Y': 1.0}",91.6,90.36,0.9068627239,5,Y1 Ba2 Cu3 O6.97
6145,[8617],Yb1Ba2Cu3O6.97,Yb1Ba2Cu3O6.97,"{'Ba': 2.0, 'Cu': 3.0, 'O': 6.97, 'Yb': 1.0}",88.0,88.0,0.0,1,Yb1 Ba2 Cu3 O6.97
6146,[4938],Y0.9Pr0.1Ba2Cu3O6.98,Y0.9Pr0.1Ba2Cu3O6.98,"{'Ba': 2.0, 'Cu': 3.0, 'O': 6.98, 'Pr': 0.1, 'Y': 0.9}",85.9,85.9,0.0,1,Y0.9 Pr0.1 Ba2 Cu3 O6.98
6147,[4939],Y0.85Pr0.15Ba2Cu3O6.98,Y0.85Pr0.15Ba2Cu3O6.98,"{'Ba': 2.0, 'Cu': 3.0, 'O': 6.98, 'Pr': 0.15, 'Y': 0.85}",79.2,79.2,0.0,1,Y0.85 Pr0.15 Ba2 Cu3 O6.98
6148,[4940],Y0.8Pr0.2Ba2Cu3O6.98,Y0.8Pr0.2Ba2Cu3O6.98,"{'Ba': 2.0, 'Cu': 3.0, 'O': 6.98, 'Pr': 0.2, 'Y': 0.8}",72.6,72.6,0.0,1,Y0.8 Pr0.2 Ba2 Cu3 O6.98
6149,[4941],Y0.7Pr0.3Ba2Cu3O6.98,Y0.7Pr0.3Ba2Cu3O6.98,"{'Ba': 2.0, 'Cu': 3.0, 'O': 6.98, 'Pr': 0.30000000000000004, 'Y': 0.7000000000000001}",57.4,57.4,0.0,1,Y0.7 Pr0.3 Ba2 Cu3 O6.98
6150,"[4933, 4942]",Y0.6Pr0.4Ba2Cu3O6.98,Y0.6Pr0.4Ba2Cu3O6.98,"{'Ba': 2.0, 'Cu': 3.0, 'O': 6.98, 'Pr': 0.4, 'Y': 0.6000000000000001}",45.4,44.1,1.3,2,Y0.6 Pr0.4 Ba2 Cu3 O6.98
6151,[4943],Y0.55Pr0.45Ba2Cu3O6.98,Y0.55Pr0.45Ba2Cu3O6.98,"{'Ba': 2.0, 'Cu': 3.0, 'O': 6.98, 'Pr': 0.45, 'Y': 0.55}",33.6,33.6,0.0,1,Y0.55 Pr0.45 Ba2 Cu3 O6.98
6152,[4944],Y0.5Pr0.5Ba2Cu3O6.98,Y0.5Pr0.5Ba2Cu3O6.98,"{'Ba': 2.0, 'Cu': 3.0, 'O': 6.98, 'Pr': 0.5, 'Y': 0.5}",21.9,21.9,0.0,1,Y0.5 Pr0.5 Ba2 Cu3 O6.98
6153,[4945],Y0.45Pr0.55Ba2Cu3O6.98,Y0.45Pr0.55Ba2Cu3O6.98,"{'Ba': 2.0, 'Cu': 3.0, 'O': 6.98, 'Pr': 0.55, 'Y': 0.45}",10.1,10.1,0.0,1,Y0.45 Pr0.55 Ba2 Cu3 O6.98
6154,"[293, 4937, 6909, 7512, 8062, 8273, 9865, 23860, 23861]",Y1Ba2Cu3O6.98,Y1Ba2Cu3O6.98,"{'Ba': 2.0, 'Cu': 3.0, 'O': 6.98, 'Y': 1.0}",92.2,89.7888888889,2.5435952003,9,Y1 Ba2 Cu3 O6.98
6155,[9349],Y1.2Ba2Cu3O6.98,Y1.2Ba2Cu3O6.98,"{'Ba': 2.0, 'Cu': 3.0, 'O': 6.98, 'Y': 1.2}",93.4,93.4,0.0,1,Y1.2 Ba2 Cu3 O6.98
6156,[4688],Sm1Ba2Cu3O6.99,Sm1Ba2Cu3O6.99,"{'Ba': 2.0, 'Cu': 3.0, 'O': 6.99, 'Sm': 1.0}",90.7,90.7,0.0,1,Sm1 Ba2 Cu3 O6.99
6157,[20042],Tm1Ba2Cu3O6.99,Tm1Ba2Cu3O6.99,"{'Ba': 2.0, 'Cu': 3.0, 'O': 6.99, 'Tm': 1.0}",89.8,89.8,0.0,1,Tm1 Ba2 Cu3 O6.99
6158,"[2483, 2533, 8274, 8362]",Y1Ba2Cu3O6.99,Y1Ba2Cu3O6.99,"{'Ba': 2.0, 'Cu': 3.0, 'O': 6.99, 'Y': 1.0}",92.3,90.375,1.6976086121,4,Y1 Ba2 Cu3 O6.99
6159,[8291],Y1Ba2Cu3O6.995,Y1Ba2Cu3O6.995,"{'Ba': 2.0, 'Cu': 3.0, 'O': 6.995, 'Y': 1.0}",89.0,89.0,0.0,1,Y1 Ba2 Cu3 O6.995
6160,[2285],Ba2Cu3O7,Ba2Cu3O7,"{'Ba': 2.0, 'Cu': 3.0, 'O': 7.0}",92.0,92.0,0.0,1,Ba2 Cu3 O7
6161,[10486],Y0.98Pr0.02Ba2Cu3O7-z,Y0.98Pr0.02Ba2Cu3O7,"{'Ba': 2.0, 'Cu': 3.0, 'O': 7.0, 'Pr': 0.02, 'Y': 0.98}",92.2,92.2,0.0,1,Y0.98 Pr0.02 Ba2 Cu3 O7
6162,[10732],Yb0.98Pr0.02Ba2Cu3O7-z,Yb0.98Pr0.02Ba2Cu3O7,"{'Ba': 2.0, 'Cu': 3.0, 'O': 7.0, 'Pr': 0.02, 'Yb': 0.98}",91.3,91.3,0.0,1,Yb0.98 Pr0.02 Ba2 Cu3 O7
6163,[10487],Y0.96Pr0.04Ba2Cu3O7-z,Y0.96Pr0.04Ba2Cu3O7,"{'Ba': 2.0, 'Cu': 3.0, 'O': 7.0, 'Pr': 0.04, 'Y': 0.96}",92.0,92.0,0.0,1,Y0.96 Pr0.04 Ba2 Cu3 O7
6164,[10733],Yb0.96Pr0.04Ba2Cu3O7-z,Yb0.96Pr0.04Ba2Cu3O7,"{'Ba': 2.0, 'Cu': 3.0, 'O': 7.0, 'Pr': 0.04, 'Yb': 0.96}",91.6,91.6,0.0,1,Yb0.96 Pr0.04 Ba2 Cu3 O7
6165,[10658],Y0.95Pr0.05Ba2Cu3O7-z,Y0.95Pr0.05Ba2Cu3O7,"{'Ba': 2.0, 'Cu': 3.0, 'O': 7.0, 'Pr': 0.05, 'Y': 0.9500000000000001}",91.8,91.8,0.0,1,Y0.95 Pr0.05 Ba2 Cu3 O7
6166,[10488],Y0.94Pr0.06Ba2Cu3O7-z,Y0.94Pr0.06Ba2Cu3O7,"{'Ba': 2.0, 'Cu': 3.0, 'O': 7.0, 'Pr': 0.06, 'Y': 0.9400000000000001}",91.5,91.5,0.0,1,Y0.94 Pr0.06 Ba2 Cu3 O7
6167,[10734],Yb0.94Pr0.06Ba2Cu3O7-z,Yb0.94Pr0.06Ba2Cu3O7,"{'Ba': 2.0, 'Cu': 3.0, 'O': 7.0, 'Pr': 0.06, 'Yb': 0.9400000000000001}",91.5,91.5,0.0,1,Yb0.94 Pr0.06 Ba2 Cu3 O7
6168,[10489],Y0.92Pr0.08Ba2Cu3O7-z,Y0.92Pr0.08Ba2Cu3O7,"{'Ba': 2.0, 'Cu': 3.0, 'O': 7.0, 'Pr': 0.08, 'Y': 0.92}",90.5,90.5,0.0,1,Y0.92 Pr0.08 Ba2 Cu3 O7
6169,[10735],Yb0.92Pr0.08Ba2Cu3O7-z,Yb0.92Pr0.08Ba2Cu3O7,"{'Ba': 2.0, 'Cu': 3.0, 'O': 7.0, 'Pr': 0.08, 'Yb': 0.92}",91.2,91.2,0.0,1,Yb0.92 Pr0.08 Ba2 Cu3 O7
6170,"[667, 1417, 1553, 2549, 2824, 10490, 10662]",Y0.9Pr0.1Ba2Cu3O7-Z,Y0.9Pr0.1Ba2Cu3O7,"{'Ba': 2.0, 'Cu': 3.0, 'O': 7.0, 'Pr': 0.1, 'Y': 0.9}",90.0,86.7,2.4436506648,7,Y0.9 Pr0.1 Ba2 Cu3 O7
6171,[10736],Yb0.9Pr0.1Ba2Cu3O7-z,Yb0.9Pr0.1Ba2Cu3O7,"{'Ba': 2.0, 'Cu': 3.0, 'O': 7.0, 'Pr': 0.1, 'Yb': 0.9}",89.9,89.9,0.0,1,Yb0.9 Pr0.1 Ba2 Cu3 O7
6172,"[2995, 8667]",Y0.87Pr0.13Ba2Cu3O7,Y0.87Pr0.13Ba2Cu3O7,"{'Ba': 2.0, 'Cu': 3.0, 'O': 7.0, 'Pr': 0.13, 'Y': 0.87}",85.0,81.675,3.325,2,Y0.87 Pr0.13 Ba2 Cu3 O7
6173,"[3340, 10491]",Y0.85Pr0.15Ba2Cu3O7-z,Y0.85Pr0.15Ba2Cu3O7,"{'Ba': 2.0, 'Cu': 3.0, 'O': 7.0, 'Pr': 0.15, 'Y': 0.85}",84.5,82.25,2.25,2,Y0.85 Pr0.15 Ba2 Cu3 O7
6174,[10737],Yb0.85Pr0.15Ba2Cu3O7-z,Yb0.85Pr0.15Ba2Cu3O7,"{'Ba': 2.0, 'Cu': 3.0, 'O': 7.0, 'Pr': 0.15, 'Yb': 0.85}",87.5,87.5,0.0,1,Yb0.85 Pr0.15 Ba2 Cu3 O7
6175,"[1898, 6815]",Sm0.8Pr0.2Ba2Cu3O7-Z,Sm0.8Pr0.2Ba2Cu3O7,"{'Ba': 2.0, 'Cu': 3.0, 'O': 7.0, 'Pr': 0.2, 'Sm': 0.8}",52.6,51.0,1.6,2,Sm0.8 Pr0.2 Ba2 Cu3 O7
6176,"[1904, 6809]",Tm0.8Pr0.2Ba2Cu3O7-Z,Tm0.8Pr0.2Ba2Cu3O7,"{'Ba': 2.0, 'Cu': 3.0, 'O': 7.0, 'Pr': 0.2, 'Tm': 0.8}",81.8,81.35,0.45,2,Tm0.8 Pr0.2 Ba2 Cu3 O7
6177,"[668, 1418, 1554, 1753, 1907, 2231, 2235, 2550, 2825, 5828, 6202, 7856, 8086, 8090, 10492, 11498, 20609]",Y0.8Pr0.2Ba2Cu3O7-Z,Y0.8Pr0.2Ba2Cu3O7,"{'Ba': 2.0, 'Cu': 3.0, 'O': 7.0, 'Pr': 0.2, 'Y': 0.8}",79.6,72.2629411765,5.3886020939,17,Y0.8 Pr0.2 Ba2 Cu3 O7
6178,"[1905, 6808, 8599, 10738]",Yb0.8Pr0.2Ba2Cu3O7-Z,Yb0.8Pr0.2Ba2Cu3O7,"{'Ba': 2.0, 'Cu': 3.0, 'O': 7.0, 'Pr': 0.2, 'Yb': 0.8}",84.0,83.225,0.6179603547,4,Yb0.8 Pr0.2 Ba2 Cu3 O7
6179,[8668],Y0.78Pr0.22Ba2Cu3O7-d,Y0.78Pr0.22Ba2Cu3O7,"{'Ba': 2.0, 'Cu': 3.0, 'O': 7.0, 'Pr': 0.22, 'Y': 0.78}",70.0,70.0,0.0,1,Y0.78 Pr0.22 Ba2 Cu3 O7
6180,[10493],Y0.75Pr0.25Ba2Cu3O7-z,Y0.75Pr0.25Ba2Cu3O7,"{'Ba': 2.0, 'Cu': 3.0, 'O': 7.0, 'Pr': 0.25, 'Y': 0.75}",72.0,72.0,0.0,1,Y0.75 Pr0.25 Ba2 Cu3 O7
6181,[10739],Yb0.75Pr0.25Ba2Cu3O7-z,Yb0.75Pr0.25Ba2Cu3O7,"{'Ba': 2.0, 'Cu': 3.0, 'O': 7.0, 'Pr': 0.25, 'Yb': 0.75}",76.1,76.1,0.0,1,Yb0.75 Pr0.25 Ba2 Cu3 O7
6182,[2551],Y0.72Pr0.28Ba2Cu3O7-Z,Y0.72Pr0.28Ba2Cu3O7,"{'Ba': 2.0, 'Cu': 3.0, 'O': 7.0, 'Pr': 0.28, 'Y': 0.72}",60.0,60.0,0.0,1,Y0.72 Pr0.28 Ba2 Cu3 O7
6183,"[669, 1419, 1511, 1555, 2236, 2239, 2826, 2996, 7857, 8087, 10494, 11499, 20610]",Y0.7Pr0.3Ba2Cu3O7-Z,Y0.7Pr0.3Ba2Cu3O7,"{'Ba': 2.0, 'Cu': 3.0, 'O': 7.0, 'Pr': 0.30000000000000004, 'Y': 0.7000000000000001}",67.4,59.7646153846,3.6779961421,13,Y0.7 Pr0.3 Ba2 Cu3 O7
6184,[10740],Yb0.7Pr0.3Ba2Cu3O7-z,Yb0.7Pr0.3Ba2Cu3O7,"{'Ba': 2.0, 'Cu': 3.0, 'O': 7.0, 'Pr': 0.30000000000000004, 'Yb': 0.7000000000000001}",68.0,68.0,0.0,1,Yb0.7 Pr0.3 Ba2 Cu3 O7
6185,"[670, 1420, 1556, 1754, 2237, 2827, 7858, 8088, 11500, 11505]",Y0.6Pr0.4Ba2Cu3O7-Z,Y0.6Pr0.4Ba2Cu3O7,"{'Ba': 2.0, 'Cu': 3.0, 'O': 7.0, 'Pr': 0.4, 'Y': 0.6000000000000001}",49.4,45.272,4.2922553512,10,Y0.6 Pr0.4 Ba2 Cu3 O7
6186,[8669],Y0.58Pr0.42Ba2Cu3O7-d,Y0.58Pr0.42Ba2Cu3O7,"{'Ba': 2.0, 'Cu': 3.0, 'O': 7.0, 'Pr': 0.42, 'Y': 0.58}",40.0,40.0,0.0,1,Y0.58 Pr0.42 Ba2 Cu3 O7
6187,[3105],Y0.57Pr0.43Ba2Cu3O7,Y0.57Pr0.43Ba2Cu3O7,"{'Ba': 2.0, 'Cu': 3.0, 'O': 7.0, 'Pr': 0.43, 'Y': 0.5700000000000001}",22.0,22.0,0.0,1,Y0.57 Pr0.43 Ba2 Cu3 O7
6188,[2552],Y0.56Pr0.44Ba2Cu3O7-Z,Y0.56Pr0.44Ba2Cu3O7,"{'Ba': 2.0, 'Cu': 3.0, 'O': 7.0, 'Pr': 0.44, 'Y': 0.56}",36.0,36.0,0.0,1,Y0.56 Pr0.44 Ba2 Cu3 O7
6189,[20612],Y0.55Pr0.45Ba2Cu3O7-z,Y0.55Pr0.45Ba2Cu3O7,"{'Ba': 2.0, 'Cu': 3.0, 'O': 7.0, 'Pr': 0.45, 'Y': 0.55}",36.5,36.5,0.0,1,Y0.55 Pr0.45 Ba2 Cu3 O7
6190,[11769],Y0.54Pr0.46Ba2Cu3O7-z,Y0.54Pr0.46Ba2Cu3O7,"{'Ba': 2.0, 'Cu': 3.0, 'O': 7.0, 'Pr': 0.46, 'Y': 0.54}",38.0,38.0,0.0,1,Y0.54 Pr0.46 Ba2 Cu3 O7
6191,"[671, 1421, 1513, 1557, 2238, 2828, 2997, 7567, 8089, 20613]",Y0.5Pr0.5Ba2Cu3O7-Z,Y0.5Pr0.5Ba2Cu3O7,"{'Ba': 2.0, 'Cu': 3.0, 'O': 7.0, 'Pr': 0.5, 'Y': 0.5}",33.0,27.648,3.7760423726,10,Y0.5 Pr0.5 Ba2 Cu3 O7
6192,[8670],Y0.47Pr0.53Ba2Cu3O7-d,Y0.47Pr0.53Ba2Cu3O7,"{'Ba': 2.0, 'Cu': 3.0, 'O': 7.0, 'Pr': 0.53, 'Y': 0.47000000000000003}",8.0,8.0,0.0,1,Y0.47 Pr0.53 Ba2 Cu3 O7
6193,[2553],Y0.44Pr0.56Ba2Cu3O7-Z,Y0.44Pr0.56Ba2Cu3O7,"{'Ba': 2.0, 'Cu': 3.0, 'O': 7.0, 'Pr': 0.56, 'Y': 0.44}",11.0,11.0,0.0,1,Y0.44 Pr0.56 Ba2 Cu3 O7
6194,"[5084, 5216, 5217]",Pr1Ba2Cu3O7,Pr1Ba2Cu3O7,"{'Ba': 2.0, 'Cu': 3.0, 'O': 7.0, 'Pr': 1.0}",92.0,91.3333333333,0.9428090416,3,Pr1 Ba2 Cu3 O7
6195,[806],Y1Ba2Cu3S0.001O7-X,Y1Ba2Cu3S0.001O7,"{'Ba': 2.0, 'Cu': 3.0, 'O': 7.0, 'S': 0.001, 'Y': 1.0}",92.0,92.0,0.0,1,Y1 Ba2 Cu3 S0.001 O7
6196,[807],Y1Ba2Cu3S0.05O7-X,Y1Ba2Cu3S0.05O7,"{'Ba': 2.0, 'Cu': 3.0, 'O': 7.0, 'S': 0.05, 'Y': 1.0}",93.5,93.5,0.0,1,Y1 Ba2 Cu3 S0.05 O7
6197,[2880],Y0.75Sc0.25Ba2Cu3O7-Z,Y0.75Sc0.25Ba2Cu3O7,"{'Ba': 2.0, 'Cu': 3.0, 'O': 7.0, 'Sc': 0.25, 'Y': 0.75}",87.0,87.0,0.0,1,Y0.75 Sc0.25 Ba2 Cu3 O7
6198,[2881],Y0.5Sc0.5Ba2Cu3O7-Z,Y0.5Sc0.5Ba2Cu3O7,"{'Ba': 2.0, 'Cu': 3.0, 'O': 7.0, 'Sc': 0.5, 'Y': 0.5}",83.0,83.0,0.0,1,Y0.5 Sc0.5 Ba2 Cu3 O7
6199,[808],Y1Ba2Cu3Se0.05O7-X,Y1Ba2Cu3Se0.05O7,"{'Ba': 2.0, 'Cu': 3.0, 'O': 7.0, 'Se': 0.05, 'Y': 1.0}",91.0,91.0,0.0,1,Y1 Ba2 Cu3 Se0.05 O7
6200,"[10301, 10600]",Y0.8Sm0.2Ba2Cu3O7-z,Y0.8Sm0.2Ba2Cu3O7,"{'Ba': 2.0, 'Cu': 3.0, 'O': 7.0, 'Sm': 0.2, 'Y': 0.8}",80.0,80.0,0.0,2,Y0.8 Sm0.2 Ba2 Cu3 O7
6201,"[10302, 10601]",Y0.6Sm0.4Ba2Cu3O7-z,Y0.6Sm0.4Ba2Cu3O7,"{'Ba': 2.0, 'Cu': 3.0, 'O': 7.0, 'Sm': 0.4, 'Y': 0.6000000000000001}",78.0,78.0,0.0,2,Y0.6 Sm0.4 Ba2 Cu3 O7
6202,[5488],Y0.5Sm0.5Ba2Cu3O7-z,Y0.5Sm0.5Ba2Cu3O7,"{'Ba': 2.0, 'Cu': 3.0, 'O': 7.0, 'Sm': 0.5, 'Y': 0.5}",92.0,92.0,0.0,1,Y0.5 Sm0.5 Ba2 Cu3 O7
6203,"[256, 320, 334, 620, 958, 1549, 1612, 1677, 1744, 3301, 8076, 8456, 8538, 10274, 21866, 21867, 21868, 21869]",Sm1Ba2Cu3O7,Sm1Ba2Cu3O7,"{'Ba': 2.0, 'Cu': 3.0, 'O': 7.0, 'Sm': 1.0}",96.0,81.4277777778,16.3989771211,18,Sm1 Ba2 Cu3 O7
6204,[9148],Y0.5Yb0.5Ba2Sr0Cu3O7-Z,Y0.5Yb0.5Ba2Sr0Cu3O7,"{'Ba': 2.0, 'Cu': 3.0, 'O': 7.0, 'Sr': 0.0, 'Y': 0.5, 'Yb': 0.5}",87.2,87.2,0.0,1,Y0.5 Yb0.5 Ba2 Cu3 O7
6205,[5557],Yb0.8Sr0.2Ba2Cu3O7-z,Yb0.8Sr0.2Ba2Cu3O7,"{'Ba': 2.0, 'Cu': 3.0, 'O': 7.0, 'Sr': 0.2, 'Yb': 0.8}",68.0,68.0,0.0,1,Yb0.8 Sr0.2 Ba2 Cu3 O7
6206,[835],Y0.96Tb0.04Ba2Cu3O7-Z,Y0.96Tb0.04Ba2Cu3O7,"{'Ba': 2.0, 'Cu': 3.0, 'O': 7.0, 'Tb': 0.04, 'Y': 0.96}",92.01,92.01,0.0,1,Y0.96 Tb0.04 Ba2 Cu3 O7
6207,[836],Y0.92Tb0.08Ba2Cu3O7-Z,Y0.92Tb0.08Ba2Cu3O7,"{'Ba': 2.0, 'Cu': 3.0, 'O': 7.0, 'Tb': 0.08, 'Y': 0.92}",92.01,92.01,0.0,1,Y0.92 Tb0.08 Ba2 Cu3 O7
6208,[8146],Y0.9Tb0.1Ba2Cu3O7,Y0.9Tb0.1Ba2Cu3O7,"{'Ba': 2.0, 'Cu': 3.0, 'O': 7.0, 'Tb': 0.1, 'Y': 0.9}",91.0,91.0,0.0,1,Y0.9 Tb0.1 Ba2 Cu3 O7
6209,[837],Y0.88Tb0.12Ba2Cu3O7-Z,Y0.88Tb0.12Ba2Cu3O7,"{'Ba': 2.0, 'Cu': 3.0, 'O': 7.0, 'Tb': 0.12, 'Y': 0.88}",92.1,92.1,0.0,1,Y0.88 Tb0.12 Ba2 Cu3 O7
6210,[8147],Y0.68Tb0.32Ba2Cu3O7,Y0.68Tb0.32Ba2Cu3O7,"{'Ba': 2.0, 'Cu': 3.0, 'O': 7.0, 'Tb': 0.32, 'Y': 0.68}",91.0,91.0,0.0,1,Y0.68 Tb0.32 Ba2 Cu3 O7
6211,[6538],Y0.14Tm0.85Ba2Cu3O7,Y0.14Tm0.85Ba2Cu3O7,"{'Ba': 2.0, 'Cu': 3.0, 'O': 7.0, 'Tm': 0.85, 'Y': 0.14}",91.0,91.0,0.0,1,Y0.14 Tm0.85 Ba2 Cu3 O7
6212,"[326, 1608, 1685, 2939, 8072, 8573, 8593]",Tm1Ba2Cu3O7-Z,Tm1Ba2Cu3O7,"{'Ba': 2.0, 'Cu': 3.0, 'O': 7.0, 'Tm': 1.0}",92.1,90.8571428571,0.9005667150000001,7,Tm1 Ba2 Cu3 O7
6213,[2811],Y0.7Zn0.3Ba2Cu3O7,Y0.7Zn0.3Ba2Cu3O7,"{'Ba': 2.0, 'Cu': 3.0, 'O': 7.0, 'Y': 0.7000000000000001, 'Zn': 0.30000000000000004}",23.5,23.5,0.0,1,Y0.7 Zn0.3 Ba2 Cu3 O7
6214,[2810],Y0.8Zn0.2Ba2Cu3O7,Y0.8Zn0.2Ba2Cu3O7,"{'Ba': 2.0, 'Cu': 3.0, 'O': 7.0, 'Y': 0.8, 'Zn': 0.2}",43.0,43.0,0.0,1,Y0.8 Zn0.2 Ba2 Cu3 O7
6215,[2809],Y0.9Zn0.1Ba2Cu3O7,Y0.9Zn0.1Ba2Cu3O7,"{'Ba': 2.0, 'Cu': 3.0, 'O': 7.0, 'Y': 0.9, 'Zn': 0.1}",54.9,54.9,0.0,1,Y0.9 Zn0.1 Ba2 Cu3 O7
6216,"[90, 93, 94, 95, 98, 99, 100, 101, 105, 106, 107, 108, 110, 118, 130, 132, 143, 162, 179, 197, 218, 254, 258, 289, 318, 330, 331, 336, 406, 468, 493, 495, 497, 512, 521, 565, 566, 567, 568, 651, 666, 691, 693, 694, 696, 697, 699, 735, 736, 747, 751, 754, 772, 787, 792, 804, 805, 830, 832, 834, 838, 852, 923, 924, 979, 1006, 1007, 1008, 1012, 1013, 1014, 1015, 1016, 1020, 1021, 1025, 1026, 1027, 1028, 1029, 1030, 1031, 1037, 1045, 1046, 1047, 1048, 1049, 1062, 1134, 1160, 1201, 1202, 1261, 1262, 1270, 1272, 1274, 1275, 1276, 1282, 1305, 1306, 1308, 1309, 1311, 1313, 1315, 1317, 1318, 1319, 1320, 1321, 1322, 1323, 1324, 1325, 1326, 1327, 1328, 1329, 1344, 1352, 1353, 1416, 1497, 1536, 1537, 1541, 1546, 1548, 1552, 1587, 1588, 1590, 1596, 1597, 1611, 1636, 1668, 1669, 1674, 1675, 1699, 1712, 1752, 1802, 1814, 1832, 1893, 1894, 1895, 1954, 2004, 2053, 2095, 2096, 2097, 2098, 2138, 2140, 2196, 2200, 2263, 2323, 2377, 2499, 2517, 2548, 2557, 2775, 2812, 2823, 2830, 2879, 2886, 2887, 2912, 2920, 2942, 2964, 2986, 2987, 2994, 3050, 3051, 3062, 3063, 3064, 3068, 3074, 3076, 3085, 3086, 3091, 3094, 3099, 3100, 3113, 3115, 3207, 3264, 3299, 3321, 3322, 3353, 3383, 3385, 3461, 3601, 3737, 3797, 3987, 4123, 4124, 4129, 4130, 4201, 4328, 4329, 4330, 5083, 5506, 5569, 5573, 5589, 5606, 5607, 5615, 5616, 6152, 6201, 6459, 6652, 6653, 6654, 6655, 6656, 6657, 6658, 6718, 6754, 6755, 6756, 7123, 7124, 7125, 7133, 7403, 7521, 7528, 7639, 7640, 7644, 7645, 7646, 7647, 7648, 7709, 7710, 7749, 7773, 7788, 7789, 7790, 7855, 7898, 7899, 7900, 7901, 7915, 7916, 7917, 7934, 7935, 7936, 7937, 7947, 7950, 8042, 8043, 8162, 8212, 8220, 8275, 8424, 8548, 8549, 8550, 8551, 8561, 8584, 8674, 8676, 8885, 8886, 8887, 8888, 8889, 8890, 8891, 8892, 8893, 8894, 8895, 8958, 8959, 8960, 8961, 8962, 9065, 9110, 9140, 9196, 9202, 9203, 9208, 9209, 9279, 9283, 9284, 9285, 9286, 9548, 9549, 9864, 10037, 10183, 10235, 10300, 10376, 10482, 10485, 10553, 10574, 10575, 10576, 10599, 10651, 10716, 11210, 11814, 11863, 11864, 11865, 11866, 11867, 11868, 19973, 20036, 20702, 20774, 20775, 20781, 20782, 20783, 24197]",Y1Ba2Cu3O7,Y1Ba2Cu3O7,"{'Ba': 2.0, 'Cu': 3.0, 'O': 7.0, 'Y': 1.0}",130.0,88.8028767507,8.1625095922,357,Y1 Ba2 Cu3 O7