,sc_id,supercon_formula,cleaned_formula,material_dict,highest_Tc,average_Tc,std_Tc,entry_count,composition
4984,[8731],Hg0.9Ba2Cu1.05O4+y,Hg0.9Ba2Cu1.05O4,"{'Ba': 2.0, 'Cu': 1.05, 'Hg': 0.9, 'O': 4.0}",96.0,96.0,0.0,1,Hg0.9 Ba2 Cu1.05 O4
4985,[8729],Hg0.95Ba2Cu1.05O4+y,Hg0.95Ba2Cu1.05O4,"{'Ba': 2.0, 'Cu': 1.05, 'Hg': 0.9500000000000001, 'O': 4.0}",95.2,95.2,0.0,1,Hg0.95 Ba2 Cu1.05 O4
4986,[8739],Hg0.8Ba2Cu1.1O4+y,Hg0.8Ba2Cu1.1O4,"{'Ba': 2.0, 'Cu': 1.1, 'Hg': 0.8, 'O': 4.0}",94.3,94.3,0.0,1,Hg0.8 Ba2 Cu1.1 O4
4987,[8735],Hg0.85Ba2Cu1.1O4+y,Hg0.85Ba2Cu1.1O4,"{'Ba': 2.0, 'Cu': 1.1, 'Hg': 0.85, 'O': 4.0}",94.5,94.5,0.0,1,Hg0.85 Ba2 Cu1.1 O4
4988,[8732],Hg0.9Ba2Cu1.1O4+y,Hg0.9Ba2Cu1.1O4,"{'Ba': 2.0, 'Cu': 1.1, 'Hg': 0.9, 'O': 4.0}",95.3,95.3,0.0,1,Hg0.9 Ba2 Cu1.1 O4
4989,[8082],Tl1.89Ba2Cu1.11O6.18,Tl1.89Ba2Cu1.11O6.18,"{'Ba': 2.0, 'Cu': 1.11, 'O': 6.18, 'Tl': 1.8900000000000001}",49.0,49.0,0.0,1,Tl1.89 Ba2 Cu1.11 O6.18
4990,[8740],Hg0.8Ba2Cu1.15O4+y,Hg0.8Ba2Cu1.15O4,"{'Ba': 2.0, 'Cu': 1.15, 'Hg': 0.8, 'O': 4.0}",93.2,93.2,0.0,1,Hg0.8 Ba2 Cu1.15 O4
4991,[8736],Hg0.85Ba2Cu1.15O4+y,Hg0.85Ba2Cu1.15O4,"{'Ba': 2.0, 'Cu': 1.15, 'Hg': 0.85, 'O': 4.0}",95.5,95.5,0.0,1,Hg0.85 Ba2 Cu1.15 O4
4992,"[6350, 6593, 6594, 6595, 6596, 6597, 6598, 6599, 8741]",Hg0.8Ba2Cu1.2O4+Z,Hg0.8Ba2Cu1.2O4,"{'Ba': 2.0, 'Cu': 1.2, 'Hg': 0.8, 'O': 4.0}",97.0,81.7111111111,14.2937783236,9,Hg0.8 Ba2 Cu1.2 O4
4993,[8078],Tl1.75Ba2Cu1.2O5.98,Tl1.75Ba2Cu1.2O5.98,"{'Ba': 2.0, 'Cu': 1.2, 'O': 5.98, 'Tl': 1.75}",26.0,26.0,0.0,1,Tl1.75 Ba2 Cu1.2 O5.98
4994,[8311],Hg1.4Tl0.6Ba2Y1Cu2O7.92,Hg1.4Tl0.6Ba2Y1Cu2O7.92,"{'Ba': 2.0, 'Cu': 2.0, 'Hg': 1.4, 'O': 7.92, 'Tl': 0.6000000000000001, 'Y': 1.0}",11.7,11.7,0.0,1,Hg1.4 Tl0.6 Ba2 Y1 Cu2 O7.92
4995,[10168],Hg1.4Tl0.6Ba2Y1Cu2O8-z,Hg1.4Tl0.6Ba2Y1Cu2O8,"{'Ba': 2.0, 'Cu': 2.0, 'Hg': 1.4, 'O': 8.0, 'Tl': 0.6000000000000001, 'Y': 1.0}",14.0,14.0,0.0,1,Hg1.4 Tl0.6 Ba2 Y1 Cu2 O8
4996,"[4985, 10982, 11099]",Hg2Ba2Y1Cu2O8-z,Hg2Ba2Y1Cu2O8,"{'Ba': 2.0, 'Cu': 2.0, 'Hg': 2.0, 'O': 8.0, 'Y': 1.0}",21.0,7.0,9.8994949366,3,Hg2 Ba2 Y1 Cu2 O8
4997,[4361],Tl2Ba2Cu2O6-z,Tl2Ba2Cu2O6,"{'Ba': 2.0, 'Cu': 2.0, 'O': 6.0, 'Tl': 2.0}",80.0,80.0,0.0,1,Tl2 Ba2 Cu2 O6
4998,[8269],Y1Ba2Cu2.3Fe0.7O7.484,Y1Ba2Cu2.3Fe0.7O7.484,"{'Ba': 2.0, 'Cu': 2.3, 'Fe': 0.7000000000000001, 'O': 7.484, 'Y': 1.0}",60.0,60.0,0.0,1,Y1 Ba2 Cu2.3 Fe0.7 O7.484
4999,[8268],Y1Ba2Cu2.4Fe0.6O7.453,Y1Ba2Cu2.4Fe0.6O7.453,"{'Ba': 2.0, 'Cu': 2.4, 'Fe': 0.6000000000000001, 'O': 7.453, 'Y': 1.0}",62.0,62.0,0.0,1,Y1 Ba2 Cu2.4 Fe0.6 O7.453
5000,[851],Y1Ba2Cu2.4Ga0.6O7,Y1Ba2Cu2.4Ga0.6O7,"{'Ba': 2.0, 'Cu': 2.4, 'Ga': 0.6000000000000001, 'O': 7.0, 'Y': 1.0}",63.31,63.31,0.0,1,Y1 Ba2 Cu2.4 Ga0.6 O7
5001,[2885],Y1Ba2Cu2.4Mn0.6O7-Z,Y1Ba2Cu2.4Mn0.6O7,"{'Ba': 2.0, 'Cu': 2.4, 'Mn': 0.6000000000000001, 'O': 7.0, 'Y': 1.0}",84.0,84.0,0.0,1,Y1 Ba2 Cu2.4 Mn0.6 O7
5002,[415],Y1Ba2Cu2.4Ni0.6O6.94,Y1Ba2Cu2.4Ni0.6O6.94,"{'Ba': 2.0, 'Cu': 2.4, 'Ni': 0.6000000000000001, 'O': 6.94, 'Y': 1.0}",66.0,66.0,0.0,1,Y1 Ba2 Cu2.4 Ni0.6 O6.94
5003,[11170],Fe0.5Ba2Dy1Cu2.5O7.52,Fe0.5Ba2Dy1Cu2.5O7.52,"{'Ba': 2.0, 'Cu': 2.5, 'Dy': 1.0, 'Fe': 0.5, 'O': 7.52}",75.0,75.0,0.0,1,Fe0.5 Ba2 Dy1 Cu2.5 O7.52
5004,[11172],Fe0.5Ba2Er1Cu2.5O7.46,Fe0.5Ba2Er1Cu2.5O7.46,"{'Ba': 2.0, 'Cu': 2.5, 'Er': 1.0, 'Fe': 0.5, 'O': 7.46}",72.0,72.0,0.0,1,Fe0.5 Ba2 Er1 Cu2.5 O7.46
5005,[11168],Fe0.5Ba2Eu1Cu2.5O7.51,Fe0.5Ba2Eu1Cu2.5O7.51,"{'Ba': 2.0, 'Cu': 2.5, 'Eu': 1.0, 'Fe': 0.5, 'O': 7.51}",60.0,60.0,0.0,1,Fe0.5 Ba2 Eu1 Cu2.5 O7.51
5006,[11169],Fe0.5Ba2Gd1Cu2.5O7.45,Fe0.5Ba2Gd1Cu2.5O7.45,"{'Ba': 2.0, 'Cu': 2.5, 'Fe': 0.5, 'Gd': 1.0, 'O': 7.45}",72.0,72.0,0.0,1,Fe0.5 Ba2 Gd1 Cu2.5 O7.45
5007,[11171],Fe0.5Ba2Ho1Cu2.5O7.49,Fe0.5Ba2Ho1Cu2.5O7.49,"{'Ba': 2.0, 'Cu': 2.5, 'Fe': 0.5, 'Ho': 1.0, 'O': 7.49}",76.0,76.0,0.0,1,Fe0.5 Ba2 Ho1 Cu2.5 O7.49
5008,[11166],Fe0.5Ba2Nd1Cu2.5O7.54,Fe0.5Ba2Nd1Cu2.5O7.54,"{'Ba': 2.0, 'Cu': 2.5, 'Fe': 0.5, 'Nd': 1.0, 'O': 7.54}",0.0,0.0,0.0,1,Fe0.5 Ba2 Nd1 Cu2.5 O7.54
5009,[10965],Fe0.5Ba2Y1Cu2.5O7+z,Fe0.5Ba2Y1Cu2.5O7,"{'Ba': 2.0, 'Cu': 2.5, 'Fe': 0.5, 'O': 7.0, 'Y': 1.0}",73.0,73.0,0.0,1,Fe0.5 Ba2 Y1 Cu2.5 O7
5010,[10869],Y1Ba2Cu2.5Fe0.5O7.35,Y1Ba2Cu2.5Fe0.5O7.35,"{'Ba': 2.0, 'Cu': 2.5, 'Fe': 0.5, 'O': 7.35, 'Y': 1.0}",80.0,80.0,0.0,1,Y1 Ba2 Cu2.5 Fe0.5 O7.35
5011,[11165],Fe0.5Ba2Y1Cu2.5O7.41,Fe0.5Ba2Y1Cu2.5O7.41,"{'Ba': 2.0, 'Cu': 2.5, 'Fe': 0.5, 'O': 7.41, 'Y': 1.0}",80.0,80.0,0.0,1,Fe0.5 Ba2 Y1 Cu2.5 O7.41
5012,[8267],Y1Ba2Cu2.5Fe0.5O7.413,Y1Ba2Cu2.5Fe0.5O7.413,"{'Ba': 2.0, 'Cu': 2.5, 'Fe': 0.5, 'O': 7.413, 'Y': 1.0}",80.0,80.0,0.0,1,Y1 Ba2 Cu2.5 Fe0.5 O7.413
5013,[11173],Fe0.5Ba2Tm1Cu2.5O7.43,Fe0.5Ba2Tm1Cu2.5O7.43,"{'Ba': 2.0, 'Cu': 2.5, 'Fe': 0.5, 'O': 7.43, 'Tm': 1.0}",60.0,60.0,0.0,1,Fe0.5 Ba2 Tm1 Cu2.5 O7.43
5014,[11174],Fe0.5Ba2Yb1Cu2.5O7.45,Fe0.5Ba2Yb1Cu2.5O7.45,"{'Ba': 2.0, 'Cu': 2.5, 'Fe': 0.5, 'O': 7.45, 'Yb': 1.0}",72.0,72.0,0.0,1,Fe0.5 Ba2 Yb1 Cu2.5 O7.45
5015,[11167],Fe0.5Ba2Sm1Cu2.5O7.54,Fe0.5Ba2Sm1Cu2.5O7.54,"{'Ba': 2.0, 'Cu': 2.5, 'Fe': 0.5, 'O': 7.54, 'Sm': 1.0}",8.0,8.0,0.0,1,Fe0.5 Ba2 Sm1 Cu2.5 O7.54
5016,"[361, 2970]",Y1Ba2Cu2.5Ni0.5O7,Y1Ba2Cu2.5Ni0.5O7,"{'Ba': 2.0, 'Cu': 2.5, 'Ni': 0.5, 'O': 7.0, 'Y': 1.0}",61.8,57.05,4.75,2,Y1 Ba2 Cu2.5 Ni0.5 O7
5017,[8597],Tm1Ba2Cu2.55Fe0.45O7-y,Tm1Ba2Cu2.55Fe0.45O7,"{'Ba': 2.0, 'Cu': 2.55, 'Fe': 0.45, 'O': 7.0, 'Tm': 1.0}",55.0,55.0,0.0,1,Tm1 Ba2 Cu2.55 Fe0.45 O7
5018,[850],Y1Ba2Cu2.55Ga0.45O7,Y1Ba2Cu2.55Ga0.45O7,"{'Ba': 2.0, 'Cu': 2.55, 'Ga': 0.45, 'O': 7.0, 'Y': 1.0}",65.36,65.36,0.0,1,Y1 Ba2 Cu2.55 Ga0.45 O7
5019,[8572],Ho1Ba2Cu2.55Ni0.45O7-y,Ho1Ba2Cu2.55Ni0.45O7,"{'Ba': 2.0, 'Cu': 2.55, 'Ho': 1.0, 'Ni': 0.45, 'O': 7.0}",75.0,75.0,0.0,1,Ho1 Ba2 Cu2.55 Ni0.45 O7
5020,[2884],Y1Ba2Cu2.55Mn0.45O7-Z,Y1Ba2Cu2.55Mn0.45O7,"{'Ba': 2.0, 'Cu': 2.55, 'Mn': 0.45, 'O': 7.0, 'Y': 1.0}",86.0,86.0,0.0,1,Y1 Ba2 Cu2.55 Mn0.45 O7
5021,[8560],Nd1Ba2Cu2.55Ni0.45O7-y,Nd1Ba2Cu2.55Ni0.45O7,"{'Ba': 2.0, 'Cu': 2.55, 'Nd': 1.0, 'Ni': 0.45, 'O': 7.0}",46.0,46.0,0.0,1,Nd1 Ba2 Cu2.55 Ni0.45 O7
5022,[8578],Tm1Ba2Cu2.55Ni0.45O7-y,Tm1Ba2Cu2.55Ni0.45O7,"{'Ba': 2.0, 'Cu': 2.55, 'Ni': 0.45, 'O': 7.0, 'Tm': 1.0}",80.0,80.0,0.0,1,Tm1 Ba2 Cu2.55 Ni0.45 O7
5023,[8566],Y1Ba2Cu2.55Ni0.45O7-y,Y1Ba2Cu2.55Ni0.45O7,"{'Ba': 2.0, 'Cu': 2.55, 'Ni': 0.45, 'O': 7.0, 'Y': 1.0}",45.0,45.0,0.0,1,Y1 Ba2 Cu2.55 Ni0.45 O7
5024,[1466],Y1Ba2Cu2.58Fe0.42O7-Z,Y1Ba2Cu2.58Fe0.42O7,"{'Ba': 2.0, 'Cu': 2.58, 'Fe': 0.42, 'O': 7.0, 'Y': 1.0}",24.7,24.7,0.0,1,Y1 Ba2 Cu2.58 Fe0.42 O7
5025,[8504],Dy1Ba2Cu2.6Ni0.4O6.83,Dy1Ba2Cu2.6Ni0.4O6.83,"{'Ba': 2.0, 'Cu': 2.6, 'Dy': 1.0, 'Ni': 0.4, 'O': 6.83}",31.0,31.0,0.0,1,Dy1 Ba2 Cu2.6 Ni0.4 O6.83
5026,[226],Y1Ba2Cu2.6Fe0.4O7,Y1Ba2Cu2.6Fe0.4O7,"{'Ba': 2.0, 'Cu': 2.6, 'Fe': 0.4, 'O': 7.0, 'Y': 1.0}",31.0,31.0,0.0,1,Y1 Ba2 Cu2.6 Fe0.4 O7
5027,[8266],Y1Ba2Cu2.6Fe0.4O7.401,Y1Ba2Cu2.6Fe0.4O7.401,"{'Ba': 2.0, 'Cu': 2.6, 'Fe': 0.4, 'O': 7.401, 'Y': 1.0}",82.0,82.0,0.0,1,Y1 Ba2 Cu2.6 Fe0.4 O7.401
5028,"[901, 918]",Y1Ba2Cu2.6Ni0.4O7,Y1Ba2Cu2.6Ni0.4O7,"{'Ba': 2.0, 'Cu': 2.6, 'Ni': 0.4, 'O': 7.0, 'Y': 1.0}",71.0,64.5,6.5,2,Y1 Ba2 Cu2.6 Ni0.4 O7
5029,[849],Y1Ba2Cu2.61Ga0.39O7,Y1Ba2Cu2.61Ga0.39O7,"{'Ba': 2.0, 'Cu': 2.61, 'Ga': 0.39, 'O': 7.0, 'Y': 1.0}",64.8,64.8,0.0,1,Y1 Ba2 Cu2.61 Ga0.39 O7
5030,[9643],Er1Ba2Cu2.64Zn0.18Fe0.18O6.95,Er1Ba2Cu2.64Zn0.18Fe0.18O6.95,"{'Ba': 2.0, 'Cu': 2.64, 'Er': 1.0, 'Fe': 0.18, 'O': 6.95, 'Zn': 0.18}",21.0,21.0,0.0,1,Er1 Ba2 Cu2.64 Zn0.18 Fe0.18 O6.95
5031,[615],Gd1Ba2Cu2.64Fe0.36O6.99,Gd1Ba2Cu2.64Fe0.36O6.99,"{'Ba': 2.0, 'Cu': 2.64, 'Fe': 0.36, 'Gd': 1.0, 'O': 6.99}",21.0,21.0,0.0,1,Gd1 Ba2 Cu2.64 Fe0.36 O6.99
5032,[1460],Gd1Ba2Cu2.64Fe0.36O7-Z,Gd1Ba2Cu2.64Fe0.36O7,"{'Ba': 2.0, 'Cu': 2.64, 'Fe': 0.36, 'Gd': 1.0, 'O': 7.0}",18.6,18.6,0.0,1,Gd1 Ba2 Cu2.64 Fe0.36 O7
5033,[584],Y1Ba2Cu2.64Fe0.36O7,Y1Ba2Cu2.64Fe0.36O7,"{'Ba': 2.0, 'Cu': 2.64, 'Fe': 0.36, 'O': 7.0, 'Y': 1.0}",32.0,32.0,0.0,1,Y1 Ba2 Cu2.64 Fe0.36 O7
5034,[1465],Y1Ba2Cu2.64Fe0.36O7.12,Y1Ba2Cu2.64Fe0.36O7.12,"{'Ba': 2.0, 'Cu': 2.64, 'Fe': 0.36, 'O': 7.12, 'Y': 1.0}",32.0,32.0,0.0,1,Y1 Ba2 Cu2.64 Fe0.36 O7.12
5035,[9638],Er1Ba2Cu2.67Zn0.24Fe0.09O6.94,Er1Ba2Cu2.67Zn0.24Fe0.09O6.94,"{'Ba': 2.0, 'Cu': 2.67, 'Er': 1.0, 'Fe': 0.09, 'O': 6.94, 'Zn': 0.24}",32.0,32.0,0.0,1,Er1 Ba2 Cu2.67 Zn0.24 Fe0.09 O6.94
5036,[1459],Gd1Ba2Cu2.67Fe0.33O7-Z,Gd1Ba2Cu2.67Fe0.33O7,"{'Ba': 2.0, 'Cu': 2.67, 'Fe': 0.33, 'Gd': 1.0, 'O': 7.0}",11.8,11.8,0.0,1,Gd1 Ba2 Cu2.67 Fe0.33 O7
5037,[848],Y1Ba2Cu2.67Ga0.33O7,Y1Ba2Cu2.67Ga0.33O7,"{'Ba': 2.0, 'Cu': 2.67, 'Ga': 0.33, 'O': 7.0, 'Y': 1.0}",65.64,65.64,0.0,1,Y1 Ba2 Cu2.67 Ga0.33 O7
5038,[8260],Y1Ba2Cu2.68Fe0.32O6.999,Y1Ba2Cu2.68Fe0.32O6.999,"{'Ba': 2.0, 'Cu': 2.68, 'Fe': 0.32, 'O': 6.999, 'Y': 1.0}",26.0,26.0,0.0,1,Y1 Ba2 Cu2.68 Fe0.32 O6.999
5039,[8265],Y1Ba2Cu2.68Fe0.32O7.343,Y1Ba2Cu2.68Fe0.32O7.343,"{'Ba': 2.0, 'Cu': 2.68, 'Fe': 0.32, 'O': 7.343, 'Y': 1.0}",82.0,82.0,0.0,1,Y1 Ba2 Cu2.68 Fe0.32 O7.343
5040,[170],Y1Ba2Cu2.697Mn0.303O6.9,Y1Ba2Cu2.697Mn0.303O6.9,"{'Ba': 2.0, 'Cu': 2.697, 'Mn': 0.303, 'O': 6.9, 'Y': 1.0}",63.0,63.0,0.0,1,Y1 Ba2 Cu2.697 Mn0.303 O6.9
5041,[8488],Dy1Ba2Cu2.7Fe0.3O6.96,Dy1Ba2Cu2.7Fe0.3O6.96,"{'Ba': 2.0, 'Cu': 2.7, 'Dy': 1.0, 'Fe': 0.30000000000000004, 'O': 6.96}",10.0,10.0,0.0,1,Dy1 Ba2 Cu2.7 Fe0.3 O6.96
5042,[7737],Dy1Ba2Cu2.7Ga0.3O6.77,Dy1Ba2Cu2.7Ga0.3O6.77,"{'Ba': 2.0, 'Cu': 2.7, 'Dy': 1.0, 'Ga': 0.30000000000000004, 'O': 6.77}",39.0,39.0,0.0,1,Dy1 Ba2 Cu2.7 Ga0.3 O6.77
5043,[8503],Dy1Ba2Cu2.7Ni0.3O7-z,Dy1Ba2Cu2.7Ni0.3O7,"{'Ba': 2.0, 'Cu': 2.7, 'Dy': 1.0, 'Ni': 0.30000000000000004, 'O': 7.0}",54.0,54.0,0.0,1,Dy1 Ba2 Cu2.7 Ni0.3 O7
5044,[9642],Er1Ba2Cu2.7Zn0.12Fe0.18O6.95,Er1Ba2Cu2.7Zn0.12Fe0.18O6.95,"{'Ba': 2.0, 'Cu': 2.7, 'Er': 1.0, 'Fe': 0.18, 'O': 6.95, 'Zn': 0.12}",23.0,23.0,0.0,1,Er1 Ba2 Cu2.7 Zn0.12 Fe0.18 O6.95
5045,[7726],Er1Ba2Cu2.7Ga0.3O7-y,Er1Ba2Cu2.7Ga0.3O7,"{'Ba': 2.0, 'Cu': 2.7, 'Er': 1.0, 'Ga': 0.30000000000000004, 'O': 7.0}",80.0,80.0,0.0,1,Er1 Ba2 Cu2.7 Ga0.3 O7
5046,[9626],Er1Ba2Cu2.7Zn0.3O6.86,Er1Ba2Cu2.7Zn0.3O6.86,"{'Ba': 2.0, 'Cu': 2.7, 'Er': 1.0, 'O': 6.86, 'Zn': 0.30000000000000004}",32.0,32.0,0.0,1,Er1 Ba2 Cu2.7 Zn0.3 O6.86
5047,[357],Gd1Ba2Cu2.7Fe0.3O6.9,Gd1Ba2Cu2.7Fe0.3O6.9,"{'Ba': 2.0, 'Cu': 2.7, 'Fe': 0.30000000000000004, 'Gd': 1.0, 'O': 6.9}",41.0,41.0,0.0,1,Gd1 Ba2 Cu2.7 Fe0.3 O6.9
5048,"[1044, 2512, 2975]",Gd1Ba2Cu2.7Fe0.3O7-Z,Gd1Ba2Cu2.7Fe0.3O7,"{'Ba': 2.0, 'Cu': 2.7, 'Fe': 0.30000000000000004, 'Gd': 1.0, 'O': 7.0}",29.0,14.3,10.9077953776,3,Gd1 Ba2 Cu2.7 Fe0.3 O7
5049,[8592],Ho1Ba2Cu2.7Fe0.3O7-y,Ho1Ba2Cu2.7Fe0.3O7,"{'Ba': 2.0, 'Cu': 2.7, 'Fe': 0.30000000000000004, 'Ho': 1.0, 'O': 7.0}",41.0,41.0,0.0,1,Ho1 Ba2 Cu2.7 Fe0.3 O7
5050,[8583],Nd1Ba2Cu2.7Fe0.3O7-y,Nd1Ba2Cu2.7Fe0.3O7,"{'Ba': 2.0, 'Cu': 2.7, 'Fe': 0.30000000000000004, 'Nd': 1.0, 'O': 7.0}",24.0,24.0,0.0,1,Nd1 Ba2 Cu2.7 Fe0.3 O7
5051,[8480],Sm1Ba2Cu2.7Fe0.3O7-z,Sm1Ba2Cu2.7Fe0.3O7,"{'Ba': 2.0, 'Cu': 2.7, 'Fe': 0.30000000000000004, 'O': 7.0, 'Sm': 1.0}",23.0,23.0,0.0,1,Sm1 Ba2 Cu2.7 Fe0.3 O7
5052,[8596],Tm1Ba2Cu2.7Fe0.3O7-y,Tm1Ba2Cu2.7Fe0.3O7,"{'Ba': 2.0, 'Cu': 2.7, 'Fe': 0.30000000000000004, 'O': 7.0, 'Tm': 1.0}",77.0,77.0,0.0,1,Tm1 Ba2 Cu2.7 Fe0.3 O7
5053,"[86, 178, 796, 3773, 8587]",Y1Ba2Cu2.7Fe0.3O7,Y1Ba2Cu2.7Fe0.3O7,"{'Ba': 2.0, 'Cu': 2.7, 'Fe': 0.30000000000000004, 'O': 7.0, 'Y': 1.0}",50.8,24.96,18.9717263316,5,Y1 Ba2 Cu2.7 Fe0.3 O7
5054,[1761],Y0.8Pr0.2Ba2Cu2.7Fe0.3O7.1,Y0.8Pr0.2Ba2Cu2.7Fe0.3O7.1,"{'Ba': 2.0, 'Cu': 2.7, 'Fe': 0.30000000000000004, 'O': 7.1, 'Pr': 0.2, 'Y': 0.8}",25.0,25.0,0.0,1,Y0.8 Pr0.2 Ba2 Cu2.7 Fe0.3 O7.1
5055,[1760],Y1Ba2Cu2.7Fe0.3O7.1,Y1Ba2Cu2.7Fe0.3O7.1,"{'Ba': 2.0, 'Cu': 2.7, 'Fe': 0.30000000000000004, 'O': 7.1, 'Y': 1.0}",69.0,69.0,0.0,1,Y1 Ba2 Cu2.7 Fe0.3 O7.1
5056,[1333],Y1Ba2Cu2.7Fe0.3O7.15,Y1Ba2Cu2.7Fe0.3O7.15,"{'Ba': 2.0, 'Cu': 2.7, 'Fe': 0.30000000000000004, 'O': 7.15, 'Y': 1.0}",36.0,36.0,0.0,1,Y1 Ba2 Cu2.7 Fe0.3 O7.15
5057,[7740],Gd1Ba2Cu2.7Ga0.3O7-y,Gd1Ba2Cu2.7Ga0.3O7,"{'Ba': 2.0, 'Cu': 2.7, 'Ga': 0.30000000000000004, 'Gd': 1.0, 'O': 7.0}",21.0,21.0,0.0,1,Gd1 Ba2 Cu2.7 Ga0.3 O7
5058,[2259],Y1Ba2Cu2.7Ga0.3O6.93,Y1Ba2Cu2.7Ga0.3O6.93,"{'Ba': 2.0, 'Cu': 2.7, 'Ga': 0.30000000000000004, 'O': 6.93, 'Y': 1.0}",75.0,75.0,0.0,1,Y1 Ba2 Cu2.7 Ga0.3 O6.93
5059,"[292, 761, 7732]",Y1Ba2Cu2.7Ga0.3O7-Z,Y1Ba2Cu2.7Ga0.3O7,"{'Ba': 2.0, 'Cu': 2.7, 'Ga': 0.30000000000000004, 'O': 7.0, 'Y': 1.0}",70.0,53.5666666667,20.4770332052,3,Y1 Ba2 Cu2.7 Ga0.3 O7
5060,[7716],Yb1Ba2Cu2.7Ga0.3O7-y,Yb1Ba2Cu2.7Ga0.3O7,"{'Ba': 2.0, 'Cu': 2.7, 'Ga': 0.30000000000000004, 'O': 7.0, 'Yb': 1.0}",90.0,90.0,0.0,1,Yb1 Ba2 Cu2.7 Ga0.3 O7
5061,[2509],Gd1Ba2Cu2.7Ni0.3O7-Z,Gd1Ba2Cu2.7Ni0.3O7,"{'Ba': 2.0, 'Cu': 2.7, 'Gd': 1.0, 'Ni': 0.30000000000000004, 'O': 7.0}",32.3,32.3,0.0,1,Gd1 Ba2 Cu2.7 Ni0.3 O7
5062,[8571],Ho1Ba2Cu2.7Ni0.3O7-y,Ho1Ba2Cu2.7Ni0.3O7,"{'Ba': 2.0, 'Cu': 2.7, 'Ho': 1.0, 'Ni': 0.30000000000000004, 'O': 7.0}",78.0,78.0,0.0,1,Ho1 Ba2 Cu2.7 Ni0.3 O7
5063,[3702],Y1Ba2Cu2.7In0.3O6.9,Y1Ba2Cu2.7In0.3O6.9,"{'Ba': 2.0, 'Cu': 2.7, 'In': 0.30000000000000004, 'O': 6.9, 'Y': 1.0}",90.0,90.0,0.0,1,Y1 Ba2 Cu2.7 In0.3 O6.9
5064,[2883],Y1Ba2Cu2.7Mn0.3O7-Z,Y1Ba2Cu2.7Mn0.3O7,"{'Ba': 2.0, 'Cu': 2.7, 'Mn': 0.30000000000000004, 'O': 7.0, 'Y': 1.0}",89.0,89.0,0.0,1,Y1 Ba2 Cu2.7 Mn0.3 O7
5065,[8559],Nd1Ba2Cu2.7Ni0.3O7-y,Nd1Ba2Cu2.7Ni0.3O7,"{'Ba': 2.0, 'Cu': 2.7, 'Nd': 1.0, 'Ni': 0.30000000000000004, 'O': 7.0}",62.0,62.0,0.0,1,Nd1 Ba2 Cu2.7 Ni0.3 O7
5066,[414],Y1Ba2Cu2.7Ni0.3O6.88,Y1Ba2Cu2.7Ni0.3O6.88,"{'Ba': 2.0, 'Cu': 2.7, 'Ni': 0.30000000000000004, 'O': 6.88, 'Y': 1.0}",73.0,73.0,0.0,1,Y1 Ba2 Cu2.7 Ni0.3 O6.88
5067,[1403],Y1Ba2Cu2.7Ni0.3O6.9,Y1Ba2Cu2.7Ni0.3O6.9,"{'Ba': 2.0, 'Cu': 2.7, 'Ni': 0.30000000000000004, 'O': 6.9, 'Y': 1.0}",46.0,46.0,0.0,1,Y1 Ba2 Cu2.7 Ni0.3 O6.9
5068,[8495],Sm1Ba2Cu2.7Ni0.3O6.97,Sm1Ba2Cu2.7Ni0.3O6.97,"{'Ba': 2.0, 'Cu': 2.7, 'Ni': 0.30000000000000004, 'O': 6.97, 'Sm': 1.0}",24.0,24.0,0.0,1,Sm1 Ba2 Cu2.7 Ni0.3 O6.97
5069,"[239, 1402]",Y1Ba2Cu2.7Ni0.3O6.97,Y1Ba2Cu2.7Ni0.3O6.97,"{'Ba': 2.0, 'Cu': 2.7, 'Ni': 0.30000000000000004, 'O': 6.97, 'Y': 1.0}",60.4,50.2,10.2,2,Y1 Ba2 Cu2.7 Ni0.3 O6.97
5070,[8577],Tm1Ba2Cu2.7Ni0.3O7-y,Tm1Ba2Cu2.7Ni0.3O7,"{'Ba': 2.0, 'Cu': 2.7, 'Ni': 0.30000000000000004, 'O': 7.0, 'Tm': 1.0}",80.0,80.0,0.0,1,Tm1 Ba2 Cu2.7 Ni0.3 O7
5071,[8565],Y1Ba2Cu2.7Ni0.3O7-y,Y1Ba2Cu2.7Ni0.3O7,"{'Ba': 2.0, 'Cu': 2.7, 'Ni': 0.30000000000000004, 'O': 7.0, 'Y': 1.0}",60.0,60.0,0.0,1,Y1 Ba2 Cu2.7 Ni0.3 O7
5072,[242],Y1Ba2Cu2.7Zn0.3O6.74,Y1Ba2Cu2.7Zn0.3O6.74,"{'Ba': 2.0, 'Cu': 2.7, 'O': 6.74, 'Y': 1.0, 'Zn': 0.30000000000000004}",45.0,45.0,0.0,1,Y1 Ba2 Cu2.7 Zn0.3 O6.74
5073,[988],Y1Ba2Cu2.7Zn0.3O6.92,Y1Ba2Cu2.7Zn0.3O6.92,"{'Ba': 2.0, 'Cu': 2.7, 'O': 6.92, 'Y': 1.0, 'Zn': 0.30000000000000004}",47.2,47.2,0.0,1,Y1 Ba2 Cu2.7 Zn0.3 O6.92
5074,"[861, 1704]",Y1Ba2Cu2.7Zn0.3O7,Y1Ba2Cu2.7Zn0.3O7,"{'Ba': 2.0, 'Cu': 2.7, 'O': 7.0, 'Y': 1.0, 'Zn': 0.30000000000000004}",27.0,23.0,4.0,2,Y1 Ba2 Cu2.7 Zn0.3 O7
5075,[1002],Y1Ba2Cu2.72Ni0.28O7,Y1Ba2Cu2.72Ni0.28O7,"{'Ba': 2.0, 'Cu': 2.7199999999999998, 'Ni': 0.28, 'O': 7.0, 'Y': 1.0}",51.0,51.0,0.0,1,Y1 Ba2 Cu2.72 Ni0.28 O7
5076,[9632],Er1Ba2Cu2.73Zn0.24Fe0.03O6.92,Er1Ba2Cu2.73Zn0.24Fe0.03O6.92,"{'Ba': 2.0, 'Cu': 2.73, 'Er': 1.0, 'Fe': 0.03, 'O': 6.92, 'Zn': 0.24}",43.0,43.0,0.0,1,Er1 Ba2 Cu2.73 Zn0.24 Fe0.03 O6.92
5077,[9637],Er1Ba2Cu2.73Zn0.18Fe0.09O6.94,Er1Ba2Cu2.73Zn0.18Fe0.09O6.94,"{'Ba': 2.0, 'Cu': 2.73, 'Er': 1.0, 'Fe': 0.09, 'O': 6.94, 'Zn': 0.18}",37.0,37.0,0.0,1,Er1 Ba2 Cu2.73 Zn0.18 Fe0.09 O6.94
5078,[619],Gd1Ba2Cu2.73Fe0.27O6.98,Gd1Ba2Cu2.73Fe0.27O6.98,"{'Ba': 2.0, 'Cu': 2.73, 'Fe': 0.27, 'Gd': 1.0, 'O': 6.98}",40.0,40.0,0.0,1,Gd1 Ba2 Cu2.73 Fe0.27 O6.98
5079,[1458],Gd1Ba2Cu2.73Fe0.27O7-Z,Gd1Ba2Cu2.73Fe0.27O7,"{'Ba': 2.0, 'Cu': 2.73, 'Fe': 0.27, 'Gd': 1.0, 'O': 7.0}",36.4,36.4,0.0,1,Gd1 Ba2 Cu2.73 Fe0.27 O7
5080,"[780, 1517]",Y1Ba2Cu2.73Fe0.27O7.1,Y1Ba2Cu2.73Fe0.27O7.1,"{'Ba': 2.0, 'Cu': 2.73, 'Fe': 0.27, 'O': 7.1, 'Y': 1.0}",69.0,69.0,0.0,2,Y1 Ba2 Cu2.73 Fe0.27 O7.1
5081,[847],Y1Ba2Cu2.73Ga0.27O7,Y1Ba2Cu2.73Ga0.27O7,"{'Ba': 2.0, 'Cu': 2.73, 'Ga': 0.27, 'O': 7.0, 'Y': 1.0}",67.04,67.04,0.0,1,Y1 Ba2 Cu2.73 Ga0.27 O7
5082,[8105],Y1Ba2Cu2.737Zn0.262O7-d,Y1Ba2Cu2.737Zn0.262O7,"{'Ba': 2.0, 'Cu': 2.737, 'O': 7.0, 'Y': 1.0, 'Zn': 0.262}",8.0,8.0,0.0,1,Y1 Ba2 Cu2.737 Zn0.262 O7
5083,[3772],Y1Ba2Cu2.74Fe0.26O7,Y1Ba2Cu2.74Fe0.26O7,"{'Ba': 2.0, 'Cu': 2.74, 'Fe': 0.26, 'O': 7.0, 'Y': 1.0}",55.6,55.6,0.0,1,Y1 Ba2 Cu2.74 Fe0.26 O7
5084,[1464],Y1Ba2Cu2.745Fe0.255O7.08,Y1Ba2Cu2.745Fe0.255O7.08,"{'Ba': 2.0, 'Cu': 2.745, 'Fe': 0.255, 'O': 7.08, 'Y': 1.0}",53.0,53.0,0.0,1,Y1 Ba2 Cu2.745 Fe0.255 O7.08
5085,[8104],Y1Ba2Cu2.745Zn0.255O7-d,Y1Ba2Cu2.745Zn0.255O7,"{'Ba': 2.0, 'Cu': 2.745, 'O': 7.0, 'Y': 1.0, 'Zn': 0.255}",5.7,5.7,0.0,1,Y1 Ba2 Cu2.745 Zn0.255 O7
5086,"[131, 1001, 2969]",Y1Ba2Cu2.75Ni0.25O7,Y1Ba2Cu2.75Ni0.25O7,"{'Ba': 2.0, 'Cu': 2.75, 'Ni': 0.25, 'O': 7.0, 'Y': 1.0}",73.8,63.9,8.0833161512,3,Y1 Ba2 Cu2.75 Ni0.25 O7
5087,[9641],Er1Ba2Cu2.76Zn0.06Fe0.18O6.97,Er1Ba2Cu2.76Zn0.06Fe0.18O6.97,"{'Ba': 2.0, 'Cu': 2.76, 'Er': 1.0, 'Fe': 0.18, 'O': 6.97, 'Zn': 0.06}",25.0,25.0,0.0,1,Er1 Ba2 Cu2.76 Zn0.06 Fe0.18 O6.97
5088,[9625],Er1Ba2Cu2.76Zn0.24O6.89,Er1Ba2Cu2.76Zn0.24O6.89,"{'Ba': 2.0, 'Cu': 2.76, 'Er': 1.0, 'O': 6.89, 'Zn': 0.24}",36.0,36.0,0.0,1,Er1 Ba2 Cu2.76 Zn0.24 O6.89
5089,[1457],Gd1Ba2Cu2.76Fe0.24O7-Z,Gd1Ba2Cu2.76Fe0.24O7,"{'Ba': 2.0, 'Cu': 2.76, 'Fe': 0.24, 'Gd': 1.0, 'O': 7.0}",40.6,40.6,0.0,1,Gd1 Ba2 Cu2.76 Fe0.24 O7
5090,"[2007, 2159]",Y1Ba2Cu2.76Fe0.24O7-Z,Y1Ba2Cu2.76Fe0.24O7,"{'Ba': 2.0, 'Cu': 2.76, 'Fe': 0.24, 'O': 7.0, 'Y': 1.0}",49.0,48.65,0.35000000000000003,2,Y1 Ba2 Cu2.76 Fe0.24 O7
5091,"[760, 846]",Y1Ba2Cu2.76Ga0.24O7-Z,Y1Ba2Cu2.76Ga0.24O7,"{'Ba': 2.0, 'Cu': 2.76, 'Ga': 0.24, 'O': 7.0, 'Y': 1.0}",71.79,58.745,13.045,2,Y1 Ba2 Cu2.76 Ga0.24 O7
5092,[3780],Y1Ba2Cu2.76Ni0.24O7,Y1Ba2Cu2.76Ni0.24O7,"{'Ba': 2.0, 'Cu': 2.76, 'Ni': 0.24, 'O': 7.0, 'Y': 1.0}",71.5,71.5,0.0,1,Y1 Ba2 Cu2.76 Ni0.24 O7
5093,"[862, 8103, 8216]",Y1Ba2Cu2.76Zn0.24O7,Y1Ba2Cu2.76Zn0.24O7,"{'Ba': 2.0, 'Cu': 2.76, 'O': 7.0, 'Y': 1.0, 'Zn': 0.24}",29.05,17.2166666667,8.4817778535,3,Y1 Ba2 Cu2.76 Zn0.24 O7
5094,[2974],Gd1Ba2Cu2.775Fe0.225O7+Z,Gd1Ba2Cu2.775Fe0.225O7,"{'Ba': 2.0, 'Cu': 2.775, 'Fe': 0.225, 'Gd': 1.0, 'O': 7.0}",33.0,33.0,0.0,1,Gd1 Ba2 Cu2.775 Fe0.225 O7
5095,[8591],Ho1Ba2Cu2.775Fe0.225O7-y,Ho1Ba2Cu2.775Fe0.225O7,"{'Ba': 2.0, 'Cu': 2.775, 'Fe': 0.225, 'Ho': 1.0, 'O': 7.0}",64.0,64.0,0.0,1,Ho1 Ba2 Cu2.775 Fe0.225 O7
5096,[8582],Nd1Ba2Cu2.775Fe0.225O7-y,Nd1Ba2Cu2.775Fe0.225O7,"{'Ba': 2.0, 'Cu': 2.775, 'Fe': 0.225, 'Nd': 1.0, 'O': 7.0}",46.0,46.0,0.0,1,Nd1 Ba2 Cu2.775 Fe0.225 O7
5097,"[1332, 1634, 8586]",Y1Ba2Cu2.775Fe0.225O7-Z,Y1Ba2Cu2.775Fe0.225O7,"{'Ba': 2.0, 'Cu': 2.775, 'Fe': 0.225, 'O': 7.0, 'Y': 1.0}",63.0,59.8666666667,2.2881336402,3,Y1 Ba2 Cu2.775 Fe0.225 O7
5098,[8570],Ho1Ba2Cu2.775Ni0.225O7-y,Ho1Ba2Cu2.775Ni0.225O7,"{'Ba': 2.0, 'Cu': 2.775, 'Ho': 1.0, 'Ni': 0.225, 'O': 7.0}",84.0,84.0,0.0,1,Ho1 Ba2 Cu2.775 Ni0.225 O7
5099,[8558],Nd1Ba2Cu2.775Ni0.225O7-y,Nd1Ba2Cu2.775Ni0.225O7,"{'Ba': 2.0, 'Cu': 2.775, 'Nd': 1.0, 'Ni': 0.225, 'O': 7.0}",72.0,72.0,0.0,1,Nd1 Ba2 Cu2.775 Ni0.225 O7
5100,[8576],Tm1Ba2Cu2.775Ni0.225O7-y,Tm1Ba2Cu2.775Ni0.225O7,"{'Ba': 2.0, 'Cu': 2.775, 'Ni': 0.225, 'O': 7.0, 'Tm': 1.0}",82.0,82.0,0.0,1,Tm1 Ba2 Cu2.775 Ni0.225 O7
5101,[8564],Y1Ba2Cu2.775Ni0.225O7-y,Y1Ba2Cu2.775Ni0.225O7,"{'Ba': 2.0, 'Cu': 2.775, 'Ni': 0.225, 'O': 7.0, 'Y': 1.0}",68.0,68.0,0.0,1,Y1 Ba2 Cu2.775 Ni0.225 O7
5102,[3205],Y1Ba2Cu2.775Zn0.225O6.93,Y1Ba2Cu2.775Zn0.225O6.93,"{'Ba': 2.0, 'Cu': 2.775, 'O': 6.93, 'Y': 1.0, 'Zn': 0.225}",25.0,25.0,0.0,1,Y1 Ba2 Cu2.775 Zn0.225 O6.93
5103,"[2199, 8102]",Y1Ba2Cu2.775Zn0.225O7-Z,Y1Ba2Cu2.775Zn0.225O7,"{'Ba': 2.0, 'Cu': 2.775, 'O': 7.0, 'Y': 1.0, 'Zn': 0.225}",46.0,29.7,16.3,2,Y1 Ba2 Cu2.775 Zn0.225 O7
5104,[9631],Er1Ba2Cu2.78Zn0.18Fe0.03O6.93,Er1Ba2Cu2.78Zn0.18Fe0.03O6.93,"{'Ba': 2.0, 'Cu': 2.7800000000000002, 'Er': 1.0, 'Fe': 0.03, 'O': 6.93, 'Zn': 0.18}",46.0,46.0,0.0,1,Er1 Ba2 Cu2.78 Zn0.18 Fe0.03 O6.93
5105,[7526],Y1Ba2Cu2.78Fe0.22O7-z,Y1Ba2Cu2.78Fe0.22O7,"{'Ba': 2.0, 'Cu': 2.7800000000000002, 'Fe': 0.22, 'O': 7.0, 'Y': 1.0}",64.0,64.0,0.0,1,Y1 Ba2 Cu2.78 Fe0.22 O7