,sc_id,supercon_formula,cleaned_formula,material_dict,highest_Tc,average_Tc,std_Tc,entry_count,composition
2177,[20174],Mo1.8W0.2B1C1,Mo1.8W0.2B1C1,"{'B': 1.0, 'C': 1.0, 'Mo': 1.8, 'W': 0.2}",6.82,6.82,0.0,1,Mo1.8 W0.2 B1 C1
2178,[20169],Mo1.85Nb0.15B1C1,Mo1.85Nb0.15B1C1,"{'B': 1.0, 'C': 1.0, 'Mo': 1.85, 'Nb': 0.15}",6.2,6.2,0.0,1,Mo1.85 Nb0.15 B1 C1
2179,[20172],Mo1.86Ta0.14B1C1,Mo1.86Ta0.14B1C1,"{'B': 1.0, 'C': 1.0, 'Mo': 1.8599999999999999, 'Ta': 0.14}",5.6,5.6,0.0,1,Mo1.86 Ta0.14 B1 C1
2180,[20168],Mo1.9Nb0.1B1C1,Mo1.9Nb0.1B1C1,"{'B': 1.0, 'C': 1.0, 'Mo': 1.9, 'Nb': 0.1}",6.7,6.7,0.0,1,Mo1.9 Nb0.1 B1 C1
2181,[20167],Mo1.935Zr0.065B1C1,Mo1.935Zr0.065B1C1,"{'B': 1.0, 'C': 1.0, 'Mo': 1.935, 'Zr': 0.065}",6.2,6.2,0.0,1,Mo1.935 Zr0.065 B1 C1
2182,[20166],Mo1.965Zr0.035B1C1,Mo1.965Zr0.035B1C1,"{'B': 1.0, 'C': 1.0, 'Mo': 1.9649999999999999, 'Zr': 0.035}",6.9,6.9,0.0,1,Mo1.965 Zr0.035 B1 C1
2183,"[12970, 14900, 14902, 20176]",B1C1Mo2,B1C1Mo2,"{'B': 1.0, 'C': 1.0, 'Mo': 2.0}",7.5,6.325,0.9858372077,4,B1 C1 Mo2
2184,[16372],Tb1Re1B1C1,Tb1Re1B1C1,"{'B': 1.0, 'C': 1.0, 'Re': 1.0, 'Tb': 1.0}",4.0,4.0,0.0,1,Tb1 Re1 B1 C1
2185,[16371],Y1Re1B1C1,Y1Re1B1C1,"{'B': 1.0, 'C': 1.0, 'Re': 1.0, 'Y': 1.0}",4.7,4.7,0.0,1,Y1 Re1 B1 C1
2186,[24103],Ca1Ni1B1N1,Ca1Ni1B1N1,"{'B': 1.0, 'Ca': 1.0, 'N': 1.0, 'Ni': 1.0}",2.08,2.08,0.0,1,Ca1 Ni1 B1 N1
2187,[6521],B1Sr2Ca2Cu3O2N+3,B1Sr2Ca2Cu3O2N,"{'B': 1.0, 'Ca': 2.0, 'Cu': 3.0, 'N': 1.0, 'O': 2.0, 'Sr': 2.0}",75.0,75.0,0.0,1,B1 Sr2 Ca2 Cu3 O2 N1
2188,"[5366, 6347, 6498]",B1Sr2Ca2Cu3O9,B1Sr2Ca2Cu3O9,"{'B': 1.0, 'Ca': 2.0, 'Cu': 3.0, 'O': 9.0, 'Sr': 2.0}",75.0,75.0,0.0,3,B1 Sr2 Ca2 Cu3 O9
2189,[6522],B1Sr2Ca3Cu4O2N+3,B1Sr2Ca3Cu4O2N,"{'B': 1.0, 'Ca': 3.0, 'Cu': 4.0, 'N': 1.0, 'O': 2.0, 'Sr': 2.0}",110.0,110.0,0.0,1,B1 Sr2 Ca3 Cu4 O2 N1
2190,"[4145, 5367, 6348, 6500]",B1Sr2Ca3Cu4O11,B1Sr2Ca3Cu4O11,"{'B': 1.0, 'Ca': 3.0, 'Cu': 4.0, 'O': 11.0, 'Sr': 2.0}",110.0,110.0,0.0,4,B1 Sr2 Ca3 Cu4 O11
2191,[6523],B1Sr2Ca4Cu5O2N+3,B1Sr2Ca4Cu5O2N,"{'B': 1.0, 'Ca': 4.0, 'Cu': 5.0, 'N': 1.0, 'O': 2.0, 'Sr': 2.0}",85.0,85.0,0.0,1,B1 Sr2 Ca4 Cu5 O2 N1
2192,"[6349, 6499]",B1Sr2Ca4Cu5O13,B1Sr2Ca4Cu5O13,"{'B': 1.0, 'Ca': 4.0, 'Cu': 5.0, 'O': 13.0, 'Sr': 2.0}",85.0,85.0,0.0,2,B1 Sr2 Ca4 Cu5 O13
2193,[23746],Cr2Re3B1,Cr2Re3B1,"{'B': 1.0, 'Cr': 2.0, 'Re': 3.0}",4.8,4.8,0.0,1,Cr2 Re3 B1
2194,[26169],Ta0.7Hf0.3B1,Ta0.7Hf0.3B1,"{'B': 1.0, 'Hf': 0.30000000000000004, 'Ta': 0.7000000000000001}",6.7,6.7,0.0,1,Ta0.7 Hf0.3 B1
2195,[12973],B1Hf1,B1Hf1,"{'B': 1.0, 'Hf': 1.0}",3.1,3.1,0.0,1,B1 Hf1
2196,[21871],B1I3,B1I3,"{'B': 1.0, 'I': 3.0}",1.8599999999999999,1.8599999999999999,0.0,1,B1 I3
2197,[24100],La1Ni1B1N1,La1Ni1B1N1,"{'B': 1.0, 'La': 1.0, 'N': 1.0, 'Ni': 1.0}",3.92,3.92,0.0,1,La1 Ni1 B1 N1
2198,[24101],La1Pt1B1N1,La1Pt1B1N1,"{'B': 1.0, 'La': 1.0, 'N': 1.0, 'Pt': 1.0}",6.7,6.7,0.0,1,La1 Pt1 B1 N1
2199,[17539],La1Rh4Si2B1,La1Rh4Si2B1,"{'B': 1.0, 'La': 1.0, 'Rh': 4.0, 'Si': 2.0}",8.0,8.0,0.0,1,La1 Rh4 Si2 B1
2200,[11435],Li2Pd2.94Ni0.06B1,Li2Pd2.94Ni0.06B1,"{'B': 1.0, 'Li': 2.0, 'Ni': 0.06, 'Pd': 2.94}",7.7,7.7,0.0,1,Li2 Pd2.94 Ni0.06 B1
2201,"[11436, 20414, 21027]",Li2Pd2.85Ni0.15B1,Li2Pd2.85Ni0.15B1,"{'B': 1.0, 'Li': 2.0, 'Ni': 0.15, 'Pd': 2.85}",7.91,7.6633333333,0.1774510887,3,Li2 Pd2.85 Ni0.15 B1
2202,"[11437, 20415, 21028]",Li2Pd2.7Ni0.3B1,Li2Pd2.7Ni0.3B1,"{'B': 1.0, 'Li': 2.0, 'Ni': 0.30000000000000004, 'Pd': 2.7}",7.4,7.2333333333,0.16996731710000001,3,Li2 Pd2.7 Ni0.3 B1
2203,[20416],Li2Pd2.55Ni0.45B1,Li2Pd2.55Ni0.45B1,"{'B': 1.0, 'Li': 2.0, 'Ni': 0.45, 'Pd': 2.55}",6.58,6.58,0.0,1,Li2 Pd2.55 Ni0.45 B1
2204,"[11438, 20417, 21029]",Li2Pd2.4Ni0.6B1,Li2Pd2.4Ni0.6B1,"{'B': 1.0, 'Li': 2.0, 'Ni': 0.6000000000000001, 'Pd': 2.4}",7.69,7.0333333333,0.4935810189,3,Li2 Pd2.4 Ni0.6 B1
2205,[22453],Li2Pd0.3Pt2.7B1,Li2Pd0.3Pt2.7B1,"{'B': 1.0, 'Li': 2.0, 'Pd': 0.30000000000000004, 'Pt': 2.7}",3.37,3.37,0.0,1,Li2 Pd0.3 Pt2.7 B1
2206,[22452],Li2Pd0.48Pt2.52B1,Li2Pd0.48Pt2.52B1,"{'B': 1.0, 'Li': 2.0, 'Pd': 0.48, 'Pt': 2.52}",3.07,3.07,0.0,1,Li2 Pd0.48 Pt2.52 B1
2207,[12625],Li2B1Pd0.9Pt2.1,Li2B1Pd0.9Pt2.1,"{'B': 1.0, 'Li': 2.0, 'Pd': 0.9, 'Pt': 2.1}",2.31,2.31,0.0,1,Li2 B1 Pd0.9 Pt2.1
2208,"[12624, 20220, 22451]",Li2B1Pd1.5Pt1.5,Li2B1Pd1.5Pt1.5,"{'B': 1.0, 'Li': 2.0, 'Pd': 1.5, 'Pt': 1.5}",4.36,3.9933333333,0.2694851058,3,Li2 B1 Pd1.5 Pt1.5
2209,"[12623, 22450]",Li2B1Pd2.4Pt0.6,Li2B1Pd2.4Pt0.6,"{'B': 1.0, 'Li': 2.0, 'Pd': 2.4, 'Pt': 0.6000000000000001}",5.47,5.185,0.28500000000000003,2,Li2 B1 Pd2.4 Pt0.6
2210,[12622],Li2B1Pd2.7Pt0.3,Li2B1Pd2.7Pt0.3,"{'B': 1.0, 'Li': 2.0, 'Pd': 2.7, 'Pt': 0.30000000000000004}",6.59,6.59,0.0,1,Li2 B1 Pd2.7 Pt0.3
2211,[22449],Li2Pd2.85Pt0.15B1,Li2Pd2.85Pt0.15B1,"{'B': 1.0, 'Li': 2.0, 'Pd': 2.85, 'Pt': 0.15}",6.4,6.4,0.0,1,Li2 Pd2.85 Pt0.15 B1
2212,"[11344, 11434, 11813, 12199, 12493, 12621, 12679, 20083, 20219, 22448, 23341, 25394]",Li2Pd3B1,Li2Pd3B1,"{'B': 1.0, 'Li': 2.0, 'Pd': 3.0}",8.29,7.5483333333000004,0.47602229170000004,12,Li2 Pd3 B1
2213,"[11345, 12626, 20084, 20221, 22454, 23344]",Li2Pt3B1,Li2Pt3B1,"{'B': 1.0, 'Li': 2.0, 'Pt': 3.0}",3.19,2.5833333333,0.4745055906,6,Li2 Pt3 B1
2214,[14442],B1Mo1,B1Mo1,"{'B': 1.0, 'Mo': 1.0}",0.5,0.5,0.0,1,B1 Mo1
2215,[17752],B1Mo1Re1,B1Mo1Re1,"{'B': 1.0, 'Mo': 1.0, 'Re': 1.0}",5.09,5.09,0.0,1,B1 Mo1 Re1
2216,"[12987, 17751]",B1Mo1.5Ta0.5,B1Mo1.5Ta0.5,"{'B': 1.0, 'Mo': 1.5, 'Ta': 0.5}",1.82,1.815,0.005,2,B1 Mo1.5 Ta0.5
2217,[12986],B1Mo1.75Ta0.25,B1Mo1.75Ta0.25,"{'B': 1.0, 'Mo': 1.75, 'Ta': 0.25}",3.05,3.05,0.0,1,B1 Mo1.75 Ta0.25
2218,"[11557, 12774, 12775, 12976]",B1Mo2,B1Mo2,"{'B': 1.0, 'Mo': 2.0}",5.86,5.5775,0.48354808450000003,4,B1 Mo2
2219,[21631],Mo7Re13B1,Mo7Re13B1,"{'B': 1.0, 'Mo': 7.0, 'Re': 13.0}",8.3,8.3,0.0,1,Mo7 Re13 B1
2220,[23641],Nb2B1N1,Nb2B1N1,"{'B': 1.0, 'N': 1.0, 'Nb': 2.0}",4.4,4.4,0.0,1,Nb2 B1 N1
2221,[12997],B1Nb1,B1Nb1,"{'B': 1.0, 'Nb': 1.0}",8.25,8.25,0.0,1,B1 Nb1
2222,[20888],Nb5Si2B1,Nb5Si2B1,"{'B': 1.0, 'Nb': 5.0, 'Si': 2.0}",6.4,6.4,0.0,1,Nb5 Si2 B1
2223,[17754],B1W1.26Re0.74,B1W1.26Re0.74,"{'B': 1.0, 'Re': 0.74, 'W': 1.26}",5.1,5.1,0.0,1,B1 W1.26 Re0.74
2224,"[12999, 14441]",B1Re2,B1Re2,"{'B': 1.0, 'Re': 2.0}",4.6,3.7,0.9,2,B1 Re2
2225,"[16206, 17264]",B1Re3,B1Re3,"{'B': 1.0, 'Re': 3.0}",4.8,4.75,0.05,2,B1 Re3
2226,"[12612, 21629]",W7Re13B1,W7Re13B1,"{'B': 1.0, 'Re': 13.0, 'W': 7.0}",7.1,7.1,0.0,2,W7 Re13 B1
2227,[17538],Y1Rh4Si2B1,Y1Rh4Si2B1,"{'B': 1.0, 'Rh': 4.0, 'Si': 2.0, 'Y': 1.0}",9.0,9.0,0.0,1,Y1 Rh4 Si2 B1
2228,[17753],B1Ta0.5W1.5,B1Ta0.5W1.5,"{'B': 1.0, 'Ta': 0.5, 'W': 1.5}",1.94,1.94,0.0,1,B1 Ta0.5 W1.5
2229,[25943],Ta0.7Zr0.3B1,Ta0.7Zr0.3B1,"{'B': 1.0, 'Ta': 0.7000000000000001, 'Zr': 0.30000000000000004}",5.0,5.0,0.0,1,Ta0.7 Zr0.3 B1
2230,[25942],Ta0.75Zr0.25B1,Ta0.75Zr0.25B1,"{'B': 1.0, 'Ta': 0.75, 'Zr': 0.25}",6.0,6.0,0.0,1,Ta0.75 Zr0.25 B1
2231,[25941],Ta0.8Zr0.2B1,Ta0.8Zr0.2B1,"{'B': 1.0, 'Ta': 0.8, 'Zr': 0.2}",7.51,7.51,0.0,1,Ta0.8 Zr0.2 B1
2232,[25940],Ta0.85Zr0.15B1,Ta0.85Zr0.15B1,"{'B': 1.0, 'Ta': 0.85, 'Zr': 0.15}",6.01,6.01,0.0,1,Ta0.85 Zr0.15 B1
2233,[25939],Ta0.9Zr0.1B1,Ta0.9Zr0.1B1,"{'B': 1.0, 'Ta': 0.9, 'Zr': 0.1}",4.62,4.62,0.0,1,Ta0.9 Zr0.1 B1
2234,"[13001, 25938, 26170]",B1Ta1,B1Ta1,"{'B': 1.0, 'Ta': 1.0}",4.0,4.0,0.0,3,B1 Ta1
2235,[13004],B1Ta1.5W0.5,B1Ta1.5W0.5,"{'B': 1.0, 'Ta': 1.5, 'W': 0.5}",0.25,0.25,0.0,1,B1 Ta1.5 W0.5
2236,[14439],B1Ta2,B1Ta2,"{'B': 1.0, 'Ta': 2.0}",3.12,3.12,0.0,1,B1 Ta2
2237,"[12776, 12777, 13010]",B1W2,B1W2,"{'B': 1.0, 'W': 2.0}",3.22,3.1933333333,0.0188561808,3,B1 W2
2238,"[13005, 14430]",B1Zr1,B1Zr1,"{'B': 1.0, 'Zr': 1.0}",3.4,3.1,0.30000000000000004,2,B1 Zr1
2239,[17564],Ca1B1.05Pd3,Ca1B1.05Pd3,"{'B': 1.05, 'Ca': 1.0, 'Pd': 3.0}",0.8,0.8,0.0,1,Ca1 B1.05 Pd3
2240,[11431],Lu1Ni1B1.1C0.9,Lu1Ni1B1.1C0.9,"{'B': 1.1, 'C': 0.9, 'Lu': 1.0, 'Ni': 1.0}",2.4,2.4,0.0,1,Lu1 Ni1 B1.1 C0.9
2241,[17565],Ca1B1.25Pd3,Ca1B1.25Pd3,"{'B': 1.25, 'Ca': 1.0, 'Pd': 3.0}",1.0,1.0,0.0,1,Ca1 B1.25 Pd3
2242,[16670],Mg1B1.4Be0.6,Mg1B1.4Be0.6,"{'B': 1.4, 'Be': 0.6000000000000001, 'Mg': 1.0}",8.3,8.3,0.0,1,Mg1 B1.4 Be0.6
2243,[18883],Mg1B1.4C0.6,Mg1B1.4C0.6,"{'B': 1.4, 'C': 0.6000000000000001, 'Mg': 1.0}",19.45,19.45,0.0,1,Mg1 B1.4 C0.6
2244,"[17218, 18882]",Mg1B1.5C0.5,Mg1B1.5C0.5,"{'B': 1.5, 'C': 0.5, 'Mg': 1.0}",28.3,27.25,1.05,2,Mg1 B1.5 C0.5
2245,[22085],Li1Rh1B1.5,Li1Rh1B1.5,"{'B': 1.5, 'Li': 1.0, 'Rh': 1.0}",2.5,2.5,0.0,1,Li1 Rh1 B1.5
2246,[22086],Li1.2Rh1B1.5,Li1.2Rh1B1.5,"{'B': 1.5, 'Li': 1.2, 'Rh': 1.0}",2.5,2.5,0.0,1,Li1.2 Rh1 B1.5
2247,[16669],Mg1B1.6Be0.4,Mg1B1.6Be0.4,"{'B': 1.6, 'Be': 0.4, 'Mg': 1.0}",20.9,20.9,0.0,1,Mg1 B1.6 Be0.4
2248,"[17113, 17164, 17206, 17217, 18881]",Mg1B1.6C0.4,Mg1B1.6C0.4,"{'B': 1.6, 'C': 0.4, 'Mg': 1.0}",35.8,30.0,5.4870757239,5,Mg1 B1.6 C0.4
2249,[16668],Mg1B1.7Be0.3,Mg1B1.7Be0.3,"{'B': 1.7000000000000002, 'Be': 0.30000000000000004, 'Mg': 1.0}",32.9,32.9,0.0,1,Mg1 B1.7 Be0.3
2250,"[17205, 17216, 18875, 18880]",Mg1B1.7C0.3,Mg1B1.7C0.3,"{'B': 1.7000000000000002, 'C': 0.30000000000000004, 'Mg': 1.0}",36.4,27.5175,10.3346707132,4,Mg1 B1.7 C0.3
2251,[11638],Mg1B1.736C0.264,Mg1B1.736C0.264,"{'B': 1.736, 'C': 0.264, 'Mg': 1.0}",17.6,17.6,0.0,1,Mg1 B1.736 C0.264
2252,"[17215, 17302]",Mg1B1.75C0.25,Mg1B1.75C0.25,"{'B': 1.75, 'C': 0.25, 'Mg': 1.0}",30.0,16.25,13.75,2,Mg1 B1.75 C0.25
2253,[18874],Mg1B1.792C0.208,Mg1B1.792C0.208,"{'B': 1.792, 'C': 0.20800000000000002, 'Mg': 1.0}",25.5,25.5,0.0,1,Mg1 B1.792 C0.208
2254,[16667],Mg1B1.8Be0.2,Mg1B1.8Be0.2,"{'B': 1.8, 'Be': 0.2, 'Mg': 1.0}",36.0,36.0,0.0,1,Mg1 B1.8 Be0.2
2255,"[11637, 12567, 12663, 16127, 16560, 17163, 17200, 17204, 17214, 17301, 18873, 18879, 19953, 23054]",Mg1B1.8C0.2,Mg1B1.8C0.2,"{'B': 1.8, 'C': 0.2, 'Mg': 1.0}",41.0,27.9757142857,7.8506020827,14,Mg1 B1.8 C0.2
2256,"[12004, 18872]",Mg1B1.81C0.19,Mg1B1.81C0.19,"{'B': 1.81, 'C': 0.19, 'Mg': 1.0}",30.57,30.335,0.23500000000000001,2,Mg1 B1.81 C0.19
2257,[20500],Mg0.9Li0.1B1.82C0.18,Mg0.9Li0.1B1.82C0.18,"{'B': 1.82, 'C': 0.18, 'Li': 0.1, 'Mg': 0.9}",28.5,28.5,0.0,1,Mg0.9 Li0.1 B1.82 C0.18
2258,[18871],Mg1B1.826C0.174,Mg1B1.826C0.174,"{'B': 1.826, 'C': 0.17400000000000002, 'Mg': 1.0}",30.8,30.8,0.0,1,Mg1 B1.826 C0.174
2259,[11636],Mg1B1.834C0.166,Mg1B1.834C0.166,"{'B': 1.834, 'C': 0.166, 'Mg': 1.0}",32.0,32.0,0.0,1,Mg1 B1.834 C0.166
2260,[20499],Mg0.91Li0.09B1.84C0.16,Mg0.91Li0.09B1.84C0.16,"{'B': 1.8399999999999999, 'C': 0.16, 'Li': 0.09, 'Mg': 0.91}",30.15,30.15,0.0,1,Mg0.91 Li0.09 B1.84 C0.16
2261,[18870],Mg1B1.84C0.16,Mg1B1.84C0.16,"{'B': 1.8399999999999999, 'C': 0.16, 'Mg': 1.0}",33.0,33.0,0.0,1,Mg1 B1.84 C0.16
2262,[17137],Mg1B1.84F0.16,Mg1B1.84F0.16,"{'B': 1.8399999999999999, 'F': 0.16, 'Mg': 1.0}",16.0,16.0,0.0,1,Mg1 B1.84 F0.16
2263,"[12662, 17213, 17300, 18372]",Mg1B1.85C0.15,Mg1B1.85C0.15,"{'B': 1.85, 'C': 0.15, 'Mg': 1.0}",36.3,26.875,6.0097316912,4,Mg1 B1.85 C0.15
2264,[12003],Mg1B1.868C0.132,Mg1B1.868C0.132,"{'B': 1.8679999999999999, 'C': 0.132, 'Mg': 1.0}",33.15,33.15,0.0,1,Mg1 B1.868 C0.132
2265,[19952],Mg1B1.87C0.13,Mg1B1.87C0.13,"{'B': 1.87, 'C': 0.13, 'Mg': 1.0}",28.0,28.0,0.0,1,Mg1 B1.87 C0.13
2266,[18869],Mg1B1.874C0.126,Mg1B1.874C0.126,"{'B': 1.874, 'C': 0.126, 'Mg': 1.0}",33.3,33.3,0.0,1,Mg1 B1.874 C0.126
2267,[20501],Mg0.89Li0.11B1.88C0.12,Mg0.89Li0.11B1.88C0.12,"{'B': 1.88, 'C': 0.12, 'Li': 0.11, 'Mg': 0.89}",29.9,29.9,0.0,1,Mg0.89 Li0.11 B1.88 C0.12
2268,[18853],Mg1B1.88C0.12,Mg1B1.88C0.12,"{'B': 1.88, 'C': 0.12, 'Mg': 1.0}",32.9,32.9,0.0,1,Mg1 B1.88 C0.12
2269,"[11635, 19951]",Mg1B1.89C0.11,Mg1B1.89C0.11,"{'B': 1.8900000000000001, 'C': 0.11, 'Mg': 1.0}",34.7,33.85,0.85,2,Mg1 B1.89 C0.11
2270,[18867],Mg1B1.896C0.104,Mg1B1.896C0.104,"{'B': 1.896, 'C': 0.10400000000000001, 'Mg': 1.0}",35.0,35.0,0.0,1,Mg1 B1.896 C0.104
2271,"[11420, 11421, 11422, 16328, 17203, 17212, 17299, 18371, 18868, 18878, 20497, 23053]",Mg1B1.9C0.1,Mg1B1.9C0.1,"{'B': 1.9, 'C': 0.1, 'Mg': 1.0}",37.3,32.965,3.1499431212,12,Mg1 B1.9 C0.1
2272,[24610],Mo5P1.1B1.9,Mo5P1.1B1.9,"{'B': 1.9, 'Mo': 5.0, 'P': 1.1}",9.2,9.2,0.0,1,Mo5 P1.1 B1.9
2273,[20450],Mg1B1.904C0.096,Mg1B1.904C0.096,"{'B': 1.904, 'C': 0.096, 'Mg': 1.0}",35.5,35.5,0.0,1,Mg1 B1.904 C0.096
2274,[17211],Mg1B1.92C0.08,Mg1B1.92C0.08,"{'B': 1.92, 'C': 0.08, 'Mg': 1.0}",38.3,38.3,0.0,1,Mg1 B1.92 C0.08
2275,[17136],Mg1B1.92F0.08,Mg1B1.92F0.08,"{'B': 1.92, 'F': 0.08, 'Mg': 1.0}",21.0,21.0,0.0,1,Mg1 B1.92 F0.08
2276,[20470],B1.92Nb0.86,B1.92Nb0.86,"{'B': 1.92, 'Nb': 0.86}",0.0,0.0,0.0,1,B1.92 Nb0.86
2277,"[12002, 12566, 12661, 17498, 19955, 20449]",Mg1B1.924C0.076,Mg1B1.924C0.076,"{'B': 1.924, 'C': 0.076, 'Mg': 1.0}",36.2,35.85,0.3149073938,6,Mg1 B1.924 C0.076
2278,[24517],Mg1B1.938C0.062,Mg1B1.938C0.062,"{'B': 1.9380000000000002, 'C': 0.062, 'Mg': 1.0}",37.0,37.0,0.0,1,Mg1 B1.938 C0.062
2279,"[16327, 17210, 17348]",Mg1B1.94C0.06,Mg1B1.94C0.06,"{'B': 1.94, 'C': 0.06, 'Mg': 1.0}",37.8,35.8,1.4142135624,3,Mg1 B1.94 C0.06
2280,"[11419, 17202]",Mg1B1.95C0.05,Mg1B1.95C0.05,"{'B': 1.9500000000000002, 'C': 0.05, 'Mg': 1.0}",38.0,36.0,2.0,2,Mg1 B1.95 C0.05
2281,"[17497, 19954]",Mg1B1.958C0.042,Mg1B1.958C0.042,"{'B': 1.9580000000000002, 'C': 0.042, 'Mg': 1.0}",37.9,37.7,0.2,2,Mg1 B1.958 C0.042
2282,[20498],Mg0.94Li0.06B1.96C0.04,Mg0.94Li0.06B1.96C0.04,"{'B': 1.96, 'C': 0.04, 'Li': 0.06, 'Mg': 0.9400000000000001}",35.6,35.6,0.0,1,Mg0.94 Li0.06 B1.96 C0.04
2283,"[16326, 17209, 17298, 17347, 18370]",Mg1B1.96C0.04,Mg1B1.96C0.04,"{'B': 1.96, 'C': 0.04, 'Mg': 1.0}",38.4,36.22,1.1651609331000001,5,Mg1 B1.96 C0.04
2284,[17135],Mg1B1.96F0.04,Mg1B1.96F0.04,"{'B': 1.96, 'F': 0.04, 'Mg': 1.0}",30.0,30.0,0.0,1,Mg1 B1.96 F0.04
2285,[24516],Mg1B1.968C0.032,Mg1B1.968C0.032,"{'B': 1.968, 'C': 0.032, 'Mg': 1.0}",37.0,37.0,0.0,1,Mg1 B1.968 C0.032
2286,"[16325, 17208, 17346, 24515]",Mg1B1.98C0.02,Mg1B1.98C0.02,"{'B': 1.98, 'C': 0.02, 'Mg': 1.0}",38.4,37.45,0.5545268253,4,Mg1 B1.98 C0.02
2287,[17496],Mg1B1.9906C0.0094,Mg1B1.9906C0.0094,"{'B': 1.9906000000000001, 'C': 0.0094, 'Mg': 1.0}",38.5,38.5,0.0,1,Mg1 B1.9906 C0.0094
2288,"[16754, 24942]",Ba0.67Pt3B2,Ba0.67Pt3B2,"{'B': 2.0, 'Ba': 0.67, 'Pt': 3.0}",5.65,5.625,0.025,2,Ba0.67 Pt3 B2
2289,[16264],Mg0.7Be0.3B2,Mg0.7Be0.3B2,"{'B': 2.0, 'Be': 0.30000000000000004, 'Mg': 0.7000000000000001}",39.0,39.0,0.0,1,Mg0.7 Be0.3 B2
2290,"[17357, 18416]",Er1Ni1.96Fe0.04B2C0.99,Er1Ni1.96Fe0.04B2C0.99,"{'B': 2.0, 'C': 0.99, 'Er': 1.0, 'Fe': 0.04, 'Ni': 1.96}",7.4,7.35,0.05,2,Er1 Ni1.96 Fe0.04 B2 C0.99
2291,[22278],Y0.95Ce0.05Ni2B2C1,Y0.95Ce0.05Ni2B2C1,"{'B': 2.0, 'C': 1.0, 'Ce': 0.05, 'Ni': 2.0, 'Y': 0.9500000000000001}",13.8,13.8,0.0,1,Y0.95 Ce0.05 Ni2 B2 C1
2292,[22279],Y0.9Ce0.1Ni2B2C1,Y0.9Ce0.1Ni2B2C1,"{'B': 2.0, 'C': 1.0, 'Ce': 0.1, 'Ni': 2.0, 'Y': 0.9}",11.9,11.9,0.0,1,Y0.9 Ce0.1 Ni2 B2 C1
2293,[22280],Ce1Ni2B2C1,Ce1Ni2B2C1,"{'B': 2.0, 'C': 1.0, 'Ce': 1.0, 'Ni': 2.0}",0.1,0.1,0.0,1,Ce1 Ni2 B2 C1
2294,[15674],Ho1Ni1.998Co0.004B2C1,Ho1Ni1.998Co0.004B2C1,"{'B': 2.0, 'C': 1.0, 'Co': 0.004, 'Ho': 1.0, 'Ni': 1.998}",7.2,7.2,0.0,1,Ho1 Ni1.998 Co0.004 B2 C1
2295,[15680],Dy1Ni1.995Co0.01B2C1,Dy1Ni1.995Co0.01B2C1,"{'B': 2.0, 'C': 1.0, 'Co': 0.01, 'Dy': 1.0, 'Ni': 1.995}",4.1,4.1,0.0,1,Dy1 Ni1.995 Co0.01 B2 C1
2296,[15646],Ho1Ni1.995Co0.01B2C1,Ho1Ni1.995Co0.01B2C1,"{'B': 2.0, 'C': 1.0, 'Co': 0.01, 'Ho': 1.0, 'Ni': 1.995}",6.72,6.72,0.0,1,Ho1 Ni1.995 Co0.01 B2 C1
2297,[15675],Ho1Ni1.993Co0.014B2C1,Ho1Ni1.993Co0.014B2C1,"{'B': 2.0, 'C': 1.0, 'Co': 0.014, 'Ho': 1.0, 'Ni': 1.9929999999999999}",5.0,5.0,0.0,1,Ho1 Ni1.993 Co0.014 B2 C1
2298,[15653],Lu1Ni1.991Co0.018B2C1,Lu1Ni1.991Co0.018B2C1,"{'B': 2.0, 'C': 1.0, 'Co': 0.018000000000000002, 'Lu': 1.0, 'Ni': 1.991}",15.6,15.6,0.0,1,Lu1 Ni1.991 Co0.018 B2 C1
2299,[15681],Dy1Ni1.99Co0.02B2C1,Dy1Ni1.99Co0.02B2C1,"{'B': 2.0, 'C': 1.0, 'Co': 0.02, 'Dy': 1.0, 'Ni': 1.99}",3.1,3.1,0.0,1,Dy1 Ni1.99 Co0.02 B2 C1
2300,[15670],Er1Ni0.199Co0.02B2C1,Er1Ni0.199Co0.02B2C1,"{'B': 2.0, 'C': 1.0, 'Co': 0.02, 'Er': 1.0, 'Ni': 0.199}",9.2,9.2,0.0,1,Er1 Ni0.199 Co0.02 B2 C1
2301,[15676],Ho1Ni1.99Co0.02B2C1,Ho1Ni1.99Co0.02B2C1,"{'B': 2.0, 'C': 1.0, 'Co': 0.02, 'Ho': 1.0, 'Ni': 1.99}",4.8,4.8,0.0,1,Ho1 Ni1.99 Co0.02 B2 C1
2302,[15605],Y1Ni1.98Co0.02B2C1,Y1Ni1.98Co0.02B2C1,"{'B': 2.0, 'C': 1.0, 'Co': 0.02, 'Ni': 1.98, 'Y': 1.0}",14.3,14.3,0.0,1,Y1 Ni1.98 Co0.02 B2 C1
2303,[15662],Tm1Ni1.99Co0.02B2C1,Tm1Ni1.99Co0.02B2C1,"{'B': 2.0, 'C': 1.0, 'Co': 0.02, 'Ni': 1.99, 'Tm': 1.0}",10.3,10.3,0.0,1,Tm1 Ni1.99 Co0.02 B2 C1
2304,[15682],Dy1Ni1.985Co0.03B2C1,Dy1Ni1.985Co0.03B2C1,"{'B': 2.0, 'C': 1.0, 'Co': 0.03, 'Dy': 1.0, 'Ni': 1.9849999999999999}",2.1,2.1,0.0,1,Dy1 Ni1.985 Co0.03 B2 C1
2305,[15647],Ho1Ni1.95Co0.03B2C1,Ho1Ni1.95Co0.03B2C1,"{'B': 2.0, 'C': 1.0, 'Co': 0.03, 'Ho': 1.0, 'Ni': 1.9500000000000002}",4.51,4.51,0.0,1,Ho1 Ni1.95 Co0.03 B2 C1
2306,[15649],Er1Ni1.98Co0.04B2C1,Er1Ni1.98Co0.04B2C1,"{'B': 2.0, 'C': 1.0, 'Co': 0.04, 'Er': 1.0, 'Ni': 1.98}",8.2,8.2,0.0,1,Er1 Ni1.98 Co0.04 B2 C1
2307,[15677],Ho1Ni1.98Co0.04B2C1,Ho1Ni1.98Co0.04B2C1,"{'B': 2.0, 'C': 1.0, 'Co': 0.04, 'Ho': 1.0, 'Ni': 1.98}",3.7,3.7,0.0,1,Ho1 Ni1.98 Co0.04 B2 C1
2308,[15663],Tm1Ni1.98Co0.04B2C1,Tm1Ni1.98Co0.04B2C1,"{'B': 2.0, 'C': 1.0, 'Co': 0.04, 'Ni': 1.98, 'Tm': 1.0}",9.2,9.2,0.0,1,Tm1 Ni1.98 Co0.04 B2 C1
2309,[15671],Er1Ni0.973Co0.054B2C1,Er1Ni0.973Co0.054B2C1,"{'B': 2.0, 'C': 1.0, 'Co': 0.054, 'Er': 1.0, 'Ni': 0.973}",7.2,7.2,0.0,1,Er1 Ni0.973 Co0.054 B2 C1
2310,[15678],Ho1Ni1.972Co0.056B2C1,Ho1Ni1.972Co0.056B2C1,"{'B': 2.0, 'C': 1.0, 'Co': 0.056, 'Ho': 1.0, 'Ni': 1.972}",2.4,2.4,0.0,1,Ho1 Ni1.972 Co0.056 B2 C1
2311,[15650],Er1Ni1.97Co0.06B2C1,Er1Ni1.97Co0.06B2C1,"{'B': 2.0, 'C': 1.0, 'Co': 0.06, 'Er': 1.0, 'Ni': 1.97}",6.6,6.6,0.0,1,Er1 Ni1.97 Co0.06 B2 C1
2312,[15643],Lu1Ni1.97Co0.06B2C1,Lu1Ni1.97Co0.06B2C1,"{'B': 2.0, 'C': 1.0, 'Co': 0.06, 'Lu': 1.0, 'Ni': 1.97}",14.0,14.0,0.0,1,Lu1 Ni1.97 Co0.06 B2 C1
2313,"[15442, 15561]",Y1Ni1.94Co0.06B2C1,Y1Ni1.94Co0.06B2C1,"{'B': 2.0, 'C': 1.0, 'Co': 0.06, 'Ni': 1.94, 'Y': 1.0}",12.1,11.8,0.30000000000000004,2,Y1 Ni1.94 Co0.06 B2 C1
2314,[15664],Tm1Ni1.97Co0.06B2C1,Tm1Ni1.97Co0.06B2C1,"{'B': 2.0, 'C': 1.0, 'Co': 0.06, 'Ni': 1.97, 'Tm': 1.0}",8.7,8.7,0.0,1,Tm1 Ni1.97 Co0.06 B2 C1
2315,[15651],Er1Ni1.9675Co0.065B2C1,Er1Ni1.9675Co0.065B2C1,"{'B': 2.0, 'C': 1.0, 'Co': 0.065, 'Er': 1.0, 'Ni': 1.9675}",6.2,6.2,0.0,1,Er1 Ni1.9675 Co0.065 B2 C1
2316,[15652],Er1Ni1.9625Co0.075B2C1,Er1Ni1.9625Co0.075B2C1,"{'B': 2.0, 'C': 1.0, 'Co': 0.075, 'Er': 1.0, 'Ni': 1.9625}",5.1,5.1,0.0,1,Er1 Ni1.9625 Co0.075 B2 C1
2317,[15672],Er1Ni1.96Co0.08B2C1,Er1Ni1.96Co0.08B2C1,"{'B': 2.0, 'C': 1.0, 'Co': 0.08, 'Er': 1.0, 'Ni': 1.96}",4.2,4.2,0.0,1,Er1 Ni1.96 Co0.08 B2 C1
2318,[15665],Tm1Ni1.96Co0.08B2C1,Tm1Ni1.96Co0.08B2C1,"{'B': 2.0, 'C': 1.0, 'Co': 0.08, 'Ni': 1.96, 'Tm': 1.0}",7.7,7.7,0.0,1,Tm1 Ni1.96 Co0.08 B2 C1
2319,[15673],Er1Ni1.955Co0.09B2C1,Er1Ni1.955Co0.09B2C1,"{'B': 2.0, 'C': 1.0, 'Co': 0.09, 'Er': 1.0, 'Ni': 1.955}",2.6,2.6,0.0,1,Er1 Ni1.955 Co0.09 B2 C1
2320,[17360],Er1Ni1.9Co0.1B2C1,Er1Ni1.9Co0.1B2C1,"{'B': 2.0, 'C': 1.0, 'Co': 0.1, 'Er': 1.0, 'Ni': 1.9}",3.1,3.1,0.0,1,Er1 Ni1.9 Co0.1 B2 C1
2321,[15654],Lu1Ni1.95Co0.1B2C1,Lu1Ni1.95Co0.1B2C1,"{'B': 2.0, 'C': 1.0, 'Co': 0.1, 'Lu': 1.0, 'Ni': 1.9500000000000002}",12.3,12.3,0.0,1,Lu1 Ni1.95 Co0.1 B2 C1
2322,"[15443, 15560, 15606]",Y1Ni1.9Co0.1B2C1,Y1Ni1.9Co0.1B2C1,"{'B': 2.0, 'C': 1.0, 'Co': 0.1, 'Ni': 1.9, 'Y': 1.0}",9.8,9.6,0.14142135620000001,3,Y1 Ni1.9 Co0.1 B2 C1
2323,[15666],Tm1Ni1.94Co0.12B2C1,Tm1Ni1.94Co0.12B2C1,"{'B': 2.0, 'C': 1.0, 'Co': 0.12, 'Ni': 1.94, 'Tm': 1.0}",5.9,5.9,0.0,1,Tm1 Ni1.94 Co0.12 B2 C1
2324,[15655],Lu1Ni1.93Co0.14B2C1,Lu1Ni1.93Co0.14B2C1,"{'B': 2.0, 'C': 1.0, 'Co': 0.14, 'Lu': 1.0, 'Ni': 1.9300000000000002}",10.5,10.5,0.0,1,Lu1 Ni1.93 Co0.14 B2 C1
2325,"[15444, 15559]",Y1Ni1.86Co0.14B2C1,Y1Ni1.86Co0.14B2C1,"{'B': 2.0, 'C': 1.0, 'Co': 0.14, 'Ni': 1.8599999999999999, 'Y': 1.0}",8.5,8.13,0.37,2,Y1 Ni1.86 Co0.14 B2 C1
2326,[15667],Tm1Ni1.92Co0.16B2C1,Tm1Ni1.92Co0.16B2C1,"{'B': 2.0, 'C': 1.0, 'Co': 0.16, 'Ni': 1.92, 'Tm': 1.0}",4.4,4.4,0.0,1,Tm1 Ni1.92 Co0.16 B2 C1
2327,[15644],Lu1Ni0.91Co0.18B2C1,Lu1Ni0.91Co0.18B2C1,"{'B': 2.0, 'C': 1.0, 'Co': 0.18, 'Lu': 1.0, 'Ni': 0.91}",8.8,8.8,0.0,1,Lu1 Ni0.91 Co0.18 B2 C1