,sc_id,supercon_formula,cleaned_formula,material_dict,highest_Tc,average_Tc,std_Tc,entry_count,composition
3726,[5967],Ba1.6Sr0.4Yb0.65Ca0.35Cu3O6.04,Ba1.6Sr0.4Yb0.65Ca0.35Cu3O6.04,"{'Ba': 1.6, 'Ca': 0.35000000000000003, 'Cu': 3.0, 'O': 6.04, 'Sr': 0.4, 'Yb': 0.65}",50.0,50.0,0.0,1,Ba1.6 Sr0.4 Yb0.65 Ca0.35 Cu3 O6.04
3727,"[5965, 5966]",Cu1Ba1.6Sr0.4Yb0.65Ca0.35Cu2O6.15,Cu1Ba1.6Sr0.4Yb0.65Ca0.35Cu2O6.15,"{'Ba': 1.6, 'Ca': 0.35000000000000003, 'Cu': 3.0, 'O': 6.15, 'Sr': 0.4, 'Yb': 0.65}",49.0,48.5,0.5,2,Cu3 Ba1.6 Sr0.4 Yb0.65 Ca0.35 O6.15
3728,[5962],Ba1.6Sr0.4Yb0.65Ca0.35Cu3O6.28,Ba1.6Sr0.4Yb0.65Ca0.35Cu3O6.28,"{'Ba': 1.6, 'Ca': 0.35000000000000003, 'Cu': 3.0, 'O': 6.28, 'Sr': 0.4, 'Yb': 0.65}",51.0,51.0,0.0,1,Ba1.6 Sr0.4 Yb0.65 Ca0.35 Cu3 O6.28
3729,[5960],Ba1.6Sr0.4Yb0.65Ca0.35Cu3O6.45,Ba1.6Sr0.4Yb0.65Ca0.35Cu3O6.45,"{'Ba': 1.6, 'Ca': 0.35000000000000003, 'Cu': 3.0, 'O': 6.45, 'Sr': 0.4, 'Yb': 0.65}",73.0,73.0,0.0,1,Ba1.6 Sr0.4 Yb0.65 Ca0.35 Cu3 O6.45
3730,[5959],Ba1.6Sr0.4Yb0.65Ca0.35Cu3O6.52,Ba1.6Sr0.4Yb0.65Ca0.35Cu3O6.52,"{'Ba': 1.6, 'Ca': 0.35000000000000003, 'Cu': 3.0, 'O': 6.52, 'Sr': 0.4, 'Yb': 0.65}",79.0,79.0,0.0,1,Ba1.6 Sr0.4 Yb0.65 Ca0.35 Cu3 O6.52
3731,[5958],Ba1.6Sr0.4Yb0.65Ca0.35Cu3O6.53,Ba1.6Sr0.4Yb0.65Ca0.35Cu3O6.53,"{'Ba': 1.6, 'Ca': 0.35000000000000003, 'Cu': 3.0, 'O': 6.53, 'Sr': 0.4, 'Yb': 0.65}",78.0,78.0,0.0,1,Ba1.6 Sr0.4 Yb0.65 Ca0.35 Cu3 O6.53
3732,[5957],Ba1.6Sr0.4Yb0.65Ca0.35Cu3O6.63,Ba1.6Sr0.4Yb0.65Ca0.35Cu3O6.63,"{'Ba': 1.6, 'Ca': 0.35000000000000003, 'Cu': 3.0, 'O': 6.63, 'Sr': 0.4, 'Yb': 0.65}",77.0,77.0,0.0,1,Ba1.6 Sr0.4 Yb0.65 Ca0.35 Cu3 O6.63
3733,[4797],Y0.6Ca0.4Ba1.6La0.4Cu3O6.95,Y0.6Ca0.4Ba1.6La0.4Cu3O6.95,"{'Ba': 1.6, 'Ca': 0.4, 'Cu': 3.0, 'La': 0.4, 'O': 6.95, 'Y': 0.6000000000000001}",82.0,82.0,0.0,1,Y0.6 Ca0.4 Ba1.6 La0.4 Cu3 O6.95
3734,[7932],Y0.6Ca0.4Ba1.6La0.4Cu3O6.96,Y0.6Ca0.4Ba1.6La0.4Cu3O6.96,"{'Ba': 1.6, 'Ca': 0.4, 'Cu': 3.0, 'La': 0.4, 'O': 6.96, 'Y': 0.6000000000000001}",78.0,78.0,0.0,1,Y0.6 Ca0.4 Ba1.6 La0.4 Cu3 O6.96
3735,[4836],Nd1Ba1.6Ca0.4Cu3O6.828,Nd1Ba1.6Ca0.4Cu3O6.828,"{'Ba': 1.6, 'Ca': 0.4, 'Cu': 3.0, 'Nd': 1.0, 'O': 6.828}",65.0,65.0,0.0,1,Nd1 Ba1.6 Ca0.4 Cu3 O6.828
3736,[5973],Ba1.6Sr0.4Yb0.6Ca0.4Cu3O6.04,Ba1.6Sr0.4Yb0.6Ca0.4Cu3O6.04,"{'Ba': 1.6, 'Ca': 0.4, 'Cu': 3.0, 'O': 6.04, 'Sr': 0.4, 'Yb': 0.6000000000000001}",47.0,47.0,0.0,1,Ba1.6 Sr0.4 Yb0.6 Ca0.4 Cu3 O6.04
3737,"[5971, 5972]",Ba1.6Sr0.4Yb0.6Ca0.4Cu3O6.14,Ba1.6Sr0.4Yb0.6Ca0.4Cu3O6.14,"{'Ba': 1.6, 'Ca': 0.4, 'Cu': 3.0, 'O': 6.14, 'Sr': 0.4, 'Yb': 0.6000000000000001}",47.0,46.5,0.5,2,Ba1.6 Sr0.4 Yb0.6 Ca0.4 Cu3 O6.14
3738,[5970],Ba1.6Sr0.4Yb0.6Ca0.4Cu3O6.25,Ba1.6Sr0.4Yb0.6Ca0.4Cu3O6.25,"{'Ba': 1.6, 'Ca': 0.4, 'Cu': 3.0, 'O': 6.25, 'Sr': 0.4, 'Yb': 0.6000000000000001}",53.0,53.0,0.0,1,Ba1.6 Sr0.4 Yb0.6 Ca0.4 Cu3 O6.25
3739,[5969],Ba1.6Sr0.4Yb0.6Ca0.4Cu3O6.36,Ba1.6Sr0.4Yb0.6Ca0.4Cu3O6.36,"{'Ba': 1.6, 'Ca': 0.4, 'Cu': 3.0, 'O': 6.36, 'Sr': 0.4, 'Yb': 0.6000000000000001}",75.0,75.0,0.0,1,Ba1.6 Sr0.4 Yb0.6 Ca0.4 Cu3 O6.36
3740,[5968],Ba1.6Sr0.4Yb0.6Ca0.4Cu3O6.61,Ba1.6Sr0.4Yb0.6Ca0.4Cu3O6.61,"{'Ba': 1.6, 'Ca': 0.4, 'Cu': 3.0, 'O': 6.61, 'Sr': 0.4, 'Yb': 0.6000000000000001}",76.0,76.0,0.0,1,Ba1.6 Sr0.4 Yb0.6 Ca0.4 Cu3 O6.61
3741,[4699],Y0.4Pr0.6Ba1.6Ca0.4Cu3O7-z,Y0.4Pr0.6Ba1.6Ca0.4Cu3O7,"{'Ba': 1.6, 'Ca': 0.4, 'Cu': 3.0, 'O': 7.0, 'Pr': 0.6000000000000001, 'Y': 0.4}",30.3,30.3,0.0,1,Y0.4 Pr0.6 Ba1.6 Ca0.4 Cu3 O7
3742,[2797],YbCa0.4Ba1.6Sr0.4Cu4O8,YbCa0.4Ba1.6Sr0.4Cu4O8,"{'Ba': 1.6, 'Ca': 0.4, 'Cu': 4.0, 'O': 8.0, 'Sr': 0.4, 'Yb': 1.0}",85.0,85.0,0.0,1,Yb1 Ca0.4 Ba1.6 Sr0.4 Cu4 O8
3743,[10534],Hg0.85Re0.15Ba1.6Sr0.4Ca2Cu3O8,Hg0.85Re0.15Ba1.6Sr0.4Ca2Cu3O8,"{'Ba': 1.6, 'Ca': 2.0, 'Cu': 3.0, 'Hg': 0.85, 'O': 8.0, 'Re': 0.15, 'Sr': 0.4}",130.3,130.3,0.0,1,Hg0.85 Re0.15 Ba1.6 Sr0.4 Ca2 Cu3 O8
3744,"[2134, 2292, 7845]",Tl1Ba1.6La0.4Cu1O5-Y,Tl1Ba1.6La0.4Cu1O5,"{'Ba': 1.6, 'Cu': 1.0, 'La': 0.4, 'O': 5.0, 'Tl': 1.0}",40.0,37.7,2.6419689627,3,Tl1 Ba1.6 La0.4 Cu1 O5
3745,[3119],Dy1Ba1.6Sr0.4Cu3O6.89,Dy1Ba1.6Sr0.4Cu3O6.89,"{'Ba': 1.6, 'Cu': 3.0, 'Dy': 1.0, 'O': 6.89, 'Sr': 0.4}",80.6,80.6,0.0,1,Dy1 Ba1.6 Sr0.4 Cu3 O6.89
3746,[9955],Eu0.5Sr0.5Ba1.6Pr0.1Cu3O7.07,Eu0.5Sr0.5Ba1.6Pr0.1Cu3O7.07,"{'Ba': 1.6, 'Cu': 3.0, 'Eu': 0.5, 'O': 7.07, 'Pr': 0.1, 'Sr': 0.5}",42.0,42.0,0.0,1,Eu0.5 Sr0.5 Ba1.6 Pr0.1 Cu3 O7.07
3747,[9945],Eu0.6Pr0.4Ba1.6Sr0.4Cu3O7,Eu0.6Pr0.4Ba1.6Sr0.4Cu3O7,"{'Ba': 1.6, 'Cu': 3.0, 'Eu': 0.6000000000000001, 'O': 7.0, 'Pr': 0.4, 'Sr': 0.4}",29.0,29.0,0.0,1,Eu0.6 Pr0.4 Ba1.6 Sr0.4 Cu3 O7
3748,[9954],Eu0.6Sr0.4Ba1.6Pr0.1Cu3O7.06,Eu0.6Sr0.4Ba1.6Pr0.1Cu3O7.06,"{'Ba': 1.6, 'Cu': 3.0, 'Eu': 0.6000000000000001, 'O': 7.06, 'Pr': 0.1, 'Sr': 0.4}",50.0,50.0,0.0,1,Eu0.6 Sr0.4 Ba1.6 Pr0.1 Cu3 O7.06
3749,[9953],Eu0.7Sr0.3Ba1.6Pr0.1Cu3O6.91,Eu0.7Sr0.3Ba1.6Pr0.1Cu3O6.91,"{'Ba': 1.6, 'Cu': 3.0, 'Eu': 0.7000000000000001, 'O': 6.91, 'Pr': 0.1, 'Sr': 0.30000000000000004}",54.0,54.0,0.0,1,Eu0.7 Sr0.3 Ba1.6 Pr0.1 Cu3 O6.91
3750,[9952],Eu0.8Sr0.2Ba1.6Pr0.1Cu3O6.78,Eu0.8Sr0.2Ba1.6Pr0.1Cu3O6.78,"{'Ba': 1.6, 'Cu': 3.0, 'Eu': 0.8, 'O': 6.78, 'Pr': 0.1, 'Sr': 0.2}",51.0,51.0,0.0,1,Eu0.8 Sr0.2 Ba1.6 Pr0.1 Cu3 O6.78
3751,[9951],Eu0.9Sr0.1Ba1.6Pr0.1Cu3O6.58,Eu0.9Sr0.1Ba1.6Pr0.1Cu3O6.58,"{'Ba': 1.6, 'Cu': 3.0, 'Eu': 0.9, 'O': 6.58, 'Pr': 0.1, 'Sr': 0.1}",32.0,32.0,0.0,1,Eu0.9 Sr0.1 Ba1.6 Pr0.1 Cu3 O6.58
3752,[2905],Eu1.4Ba1.6Cu3O7.16,Eu1.4Ba1.6Cu3O7.16,"{'Ba': 1.6, 'Cu': 3.0, 'Eu': 1.4, 'O': 7.16}",28.0,28.0,0.0,1,Eu1.4 Ba1.6 Cu3 O7.16
3753,[4753],Y1Ba1.6La0.4Cu3O7,Y1Ba1.6La0.4Cu3O7,"{'Ba': 1.6, 'Cu': 3.0, 'La': 0.4, 'O': 7.0, 'Y': 1.0}",32.2,32.2,0.0,1,Y1 Ba1.6 La0.4 Cu3 O7
3754,[9443],Y1Ba1.6La0.4Cu3O7.04,Y1Ba1.6La0.4Cu3O7.04,"{'Ba': 1.6, 'Cu': 3.0, 'La': 0.4, 'O': 7.04, 'Y': 1.0}",59.0,59.0,0.0,1,Y1 Ba1.6 La0.4 Cu3 O7.04
3755,[388],Y1Ba1.6La0.4Cu3O7.05,Y1Ba1.6La0.4Cu3O7.05,"{'Ba': 1.6, 'Cu': 3.0, 'La': 0.4, 'O': 7.05, 'Y': 1.0}",52.0,52.0,0.0,1,Y1 Ba1.6 La0.4 Cu3 O7.05
3756,[4783],Y1Ba1.6La0.4Cu3O7.06,Y1Ba1.6La0.4Cu3O7.06,"{'Ba': 1.6, 'Cu': 3.0, 'La': 0.4, 'O': 7.06, 'Y': 1.0}",52.0,52.0,0.0,1,Y1 Ba1.6 La0.4 Cu3 O7.06
3757,[578],Y1Ba1.6La0.4Cu3O7.083,Y1Ba1.6La0.4Cu3O7.083,"{'Ba': 1.6, 'Cu': 3.0, 'La': 0.4, 'O': 7.083, 'Y': 1.0}",49.4,49.4,0.0,1,Y1 Ba1.6 La0.4 Cu3 O7.083
3758,[2487],Y1Ba1.6La0.4Cu3O7.11,Y1Ba1.6La0.4Cu3O7.11,"{'Ba': 1.6, 'Cu': 3.0, 'La': 0.4, 'O': 7.11, 'Y': 1.0}",49.3,49.3,0.0,1,Y1 Ba1.6 La0.4 Cu3 O7.11
3759,"[9373, 9436]",Y1Ba1.6La0.4Cu3O7.14,Y1Ba1.6La0.4Cu3O7.14,"{'Ba': 1.6, 'Cu': 3.0, 'La': 0.4, 'O': 7.14, 'Y': 1.0}",70.0,69.075,0.925,2,Y1 Ba1.6 La0.4 Cu3 O7.14
3760,[4843],Nd1Ba1.6Sr0.4Cu3O6.721,Nd1Ba1.6Sr0.4Cu3O6.721,"{'Ba': 1.6, 'Cu': 3.0, 'Nd': 1.0, 'O': 6.721, 'Sr': 0.4}",78.5,78.5,0.0,1,Nd1 Ba1.6 Sr0.4 Cu3 O6.721
3761,[11691],Nd1Ba1.6Sr0.4Cu3O6.94,Nd1Ba1.6Sr0.4Cu3O6.94,"{'Ba': 1.6, 'Cu': 3.0, 'Nd': 1.0, 'O': 6.94, 'Sr': 0.4}",86.0,86.0,0.0,1,Nd1 Ba1.6 Sr0.4 Cu3 O6.94
3762,[4846],Nd1.2Ba1.6Sr0.2Cu3O6.885,Nd1.2Ba1.6Sr0.2Cu3O6.885,"{'Ba': 1.6, 'Cu': 3.0, 'Nd': 1.2, 'O': 6.885, 'Sr': 0.2}",45.0,45.0,0.0,1,Nd1.2 Ba1.6 Sr0.2 Cu3 O6.885
3763,"[2188, 5665]",Nd1.4Ba1.6Cu3O7+Z,Nd1.4Ba1.6Cu3O7,"{'Ba': 1.6, 'Cu': 3.0, 'Nd': 1.4, 'O': 7.0}",23.5,15.7,7.8,2,Nd1.4 Ba1.6 Cu3 O7
3764,[1241],Nd1.4Ba1.6Cu3O7.09,Nd1.4Ba1.6Cu3O7.09,"{'Ba': 1.6, 'Cu': 3.0, 'Nd': 1.4, 'O': 7.09}",38.0,38.0,0.0,1,Nd1.4 Ba1.6 Cu3 O7.09
3765,[6935],Ba1.6Sr0.4Yb1Cu3O6+z,Ba1.6Sr0.4Yb1Cu3O6,"{'Ba': 1.6, 'Cu': 3.0, 'O': 6.0, 'Sr': 0.4, 'Yb': 1.0}",79.5,79.5,0.0,1,Ba1.6 Sr0.4 Yb1 Cu3 O6
3766,[5943],Ba1.6Sr0.4Yb1Cu3O6.48,Ba1.6Sr0.4Yb1Cu3O6.48,"{'Ba': 1.6, 'Cu': 3.0, 'O': 6.48, 'Sr': 0.4, 'Yb': 1.0}",10.0,10.0,0.0,1,Ba1.6 Sr0.4 Yb1 Cu3 O6.48
3767,[5942],Ba1.6Sr0.4Yb1Cu3O6.53,Ba1.6Sr0.4Yb1Cu3O6.53,"{'Ba': 1.6, 'Cu': 3.0, 'O': 6.53, 'Sr': 0.4, 'Yb': 1.0}",34.0,34.0,0.0,1,Ba1.6 Sr0.4 Yb1 Cu3 O6.53
3768,[5941],Ba1.6Sr0.4Yb1Cu3O6.64,Ba1.6Sr0.4Yb1Cu3O6.64,"{'Ba': 1.6, 'Cu': 3.0, 'O': 6.64, 'Sr': 0.4, 'Yb': 1.0}",47.0,47.0,0.0,1,Ba1.6 Sr0.4 Yb1 Cu3 O6.64
3769,[6940],Ba1.6Sr0.4Yb1Cu3O6.69,Ba1.6Sr0.4Yb1Cu3O6.69,"{'Ba': 1.6, 'Cu': 3.0, 'O': 6.69, 'Sr': 0.4, 'Yb': 1.0}",48.9,48.9,0.0,1,Ba1.6 Sr0.4 Yb1 Cu3 O6.69
3770,[5940],Ba1.6Sr0.4Yb1Cu3O6.75,Ba1.6Sr0.4Yb1Cu3O6.75,"{'Ba': 1.6, 'Cu': 3.0, 'O': 6.75, 'Sr': 0.4, 'Yb': 1.0}",60.0,60.0,0.0,1,Ba1.6 Sr0.4 Yb1 Cu3 O6.75
3771,[1205],Y1Ba1.6Sr0.4Cu3O6.8,Y1Ba1.6Sr0.4Cu3O6.8,"{'Ba': 1.6, 'Cu': 3.0, 'O': 6.8, 'Sr': 0.4, 'Y': 1.0}",88.5,88.5,0.0,1,Y1 Ba1.6 Sr0.4 Cu3 O6.8
3772,[5939],Ba1.6Sr0.4Yb1Cu3O6.8,Ba1.6Sr0.4Yb1Cu3O6.8,"{'Ba': 1.6, 'Cu': 3.0, 'O': 6.8, 'Sr': 0.4, 'Yb': 1.0}",81.0,81.0,0.0,1,Ba1.6 Sr0.4 Yb1 Cu3 O6.8
3773,[7996],Y0.6Pr0.4Ba1.6Sr0.4Cu3O6.87,Y0.6Pr0.4Ba1.6Sr0.4Cu3O6.87,"{'Ba': 1.6, 'Cu': 3.0, 'O': 6.87, 'Pr': 0.4, 'Sr': 0.4, 'Y': 0.6000000000000001}",44.0,44.0,0.0,1,Y0.6 Pr0.4 Ba1.6 Sr0.4 Cu3 O6.87
3774,[4616],Yb1Ba1.6Sr0.4Cu3O6.88,Yb1Ba1.6Sr0.4Cu3O6.88,"{'Ba': 1.6, 'Cu': 3.0, 'O': 6.88, 'Sr': 0.4, 'Yb': 1.0}",80.2,80.2,0.0,1,Yb1 Ba1.6 Sr0.4 Cu3 O6.88
3775,[5938],Ba1.6Sr0.4Yb1Cu3O6.96,Ba1.6Sr0.4Yb1Cu3O6.96,"{'Ba': 1.6, 'Cu': 3.0, 'O': 6.96, 'Sr': 0.4, 'Yb': 1.0}",82.0,82.0,0.0,1,Ba1.6 Sr0.4 Yb1 Cu3 O6.96
3776,[10380],Y1Ba1.6Sr0.4Cu3O7-z,Y1Ba1.6Sr0.4Cu3O7,"{'Ba': 1.6, 'Cu': 3.0, 'O': 7.0, 'Sr': 0.4, 'Y': 1.0}",83.0,83.0,0.0,1,Y1 Ba1.6 Sr0.4 Cu3 O7
3777,"[5737, 6261]",Ho1Sr0.4Ba1.6Cu4O8,Ho1Sr0.4Ba1.6Cu4O8,"{'Ba': 1.6, 'Cu': 4.0, 'Ho': 1.0, 'O': 8.0, 'Sr': 0.4}",82.0,75.05,6.95,2,Ho1 Sr0.4 Ba1.6 Cu4 O8
3778,[1194],Y1Ba1.6Sr0.4Cu4O7.9,Y1Ba1.6Sr0.4Cu4O7.9,"{'Ba': 1.6, 'Cu': 4.0, 'O': 7.9, 'Sr': 0.4, 'Y': 1.0}",79.0,79.0,0.0,1,Y1 Ba1.6 Sr0.4 Cu4 O7.9
3779,[7707],Y1Ba1.6Sr0.4Cu4O7.95,Y1Ba1.6Sr0.4Cu4O7.95,"{'Ba': 1.6, 'Cu': 4.0, 'O': 7.95, 'Sr': 0.4, 'Y': 1.0}",82.0,82.0,0.0,1,Y1 Ba1.6 Sr0.4 Cu4 O7.95
3780,"[7396, 10193, 10305]",Y1Ba1.6Sr0.4Cu4O8,Y1Ba1.6Sr0.4Cu4O8,"{'Ba': 1.6, 'Cu': 4.0, 'O': 8.0, 'Sr': 0.4, 'Y': 1.0}",81.4,79.5,2.0832666656,3,Y1 Ba1.6 Sr0.4 Cu4 O8
3781,"[2789, 3819]",Yb1Ba1.6Sr0.4Cu4O8,Yb1Ba1.6Sr0.4Cu4O8,"{'Ba': 1.6, 'Cu': 4.0, 'O': 8.0, 'Sr': 0.4, 'Yb': 1.0}",80.0,80.0,0.0,2,Yb1 Ba1.6 Sr0.4 Cu4 O8
3782,[6429],Nd1Ba1.6La0.4O6.68,Nd1Ba1.6La0.4O6.68,"{'Ba': 1.6, 'La': 0.4, 'Nd': 1.0, 'O': 6.68}",37.0,37.0,0.0,1,Nd1 Ba1.6 La0.4 O6.68
3783,[4696],Sm1.39Ba1.61Cu3O7.07,Sm1.39Ba1.61Cu3O7.07,"{'Ba': 1.6099999999999999, 'Cu': 3.0, 'O': 7.07, 'Sm': 1.3900000000000001}",31.8,31.8,0.0,1,Sm1.39 Ba1.61 Cu3 O7.07
3784,[9217],Gd0.62Ba1.62Cu3O7-z,Gd0.62Ba1.62Cu3O7,"{'Ba': 1.62, 'Cu': 3.0, 'Gd': 0.62, 'O': 7.0}",34.8,34.8,0.0,1,Gd0.62 Ba1.62 Cu3 O7
3785,[8227],Ca0.1Ba1.65La1.25Cu3O6.98,Ca0.1Ba1.65La1.25Cu3O6.98,"{'Ba': 1.65, 'Ca': 0.1, 'Cu': 3.0, 'La': 1.25, 'O': 6.98}",8.0,8.0,0.0,1,Ca0.1 Ba1.65 La1.25 Cu3 O6.98
3786,[7669],Ca0.1La1.25Ba1.65Cu3O6.985,Ca0.1La1.25Ba1.65Cu3O6.985,"{'Ba': 1.65, 'Ca': 0.1, 'Cu': 3.0, 'La': 1.25, 'O': 6.985}",5.0,5.0,0.0,1,Ca0.1 La1.25 Ba1.65 Cu3 O6.985
3787,[4415],Ca0.1Ba1.65La1.25Cu3O7.01,Ca0.1Ba1.65La1.25Cu3O7.01,"{'Ba': 1.65, 'Ca': 0.1, 'Cu': 3.0, 'La': 1.25, 'O': 7.01}",19.5,19.5,0.0,1,Ca0.1 Ba1.65 La1.25 Cu3 O7.01
3788,[4416],Ca0.1Ba1.65La1.25Cu3O7.02,Ca0.1Ba1.65La1.25Cu3O7.02,"{'Ba': 1.65, 'Ca': 0.1, 'Cu': 3.0, 'La': 1.25, 'O': 7.02}",26.4,26.4,0.0,1,Ca0.1 Ba1.65 La1.25 Cu3 O7.02
3789,[4417],Ca0.1Ba1.65La1.25Cu3O7.03,Ca0.1Ba1.65La1.25Cu3O7.03,"{'Ba': 1.65, 'Ca': 0.1, 'Cu': 3.0, 'La': 1.25, 'O': 7.03}",29.9,29.9,0.0,1,Ca0.1 Ba1.65 La1.25 Cu3 O7.03
3790,"[3218, 7670, 8228]",La1.25Ca0.1Ba1.65Cu3O7.06,La1.25Ca0.1Ba1.65Cu3O7.06,"{'Ba': 1.65, 'Ca': 0.1, 'Cu': 3.0, 'La': 1.25, 'O': 7.06}",41.9,39.5666666667,1.6819301082,3,La1.25 Ca0.1 Ba1.65 Cu3 O7.06
3791,[4418],Ca0.1Ba1.65La1.25Cu3O7.08,Ca0.1Ba1.65La1.25Cu3O7.08,"{'Ba': 1.65, 'Ca': 0.1, 'Cu': 3.0, 'La': 1.25, 'O': 7.08}",45.9,45.9,0.0,1,Ca0.1 Ba1.65 La1.25 Cu3 O7.08
3792,"[6679, 23957]",Ca0.1La0.9Ba1.65La0.35Cu3O7.15,Ca0.1La0.9Ba1.65La0.35Cu3O7.15,"{'Ba': 1.65, 'Ca': 0.1, 'Cu': 3.0, 'La': 1.25, 'O': 7.15}",57.3,57.15,0.15,2,Ca0.1 La1.25 Ba1.65 Cu3 O7.15
3793,[10847],Gd1Ba1.65Pr0.35Cu3O6.97,Gd1Ba1.65Pr0.35Cu3O6.97,"{'Ba': 1.65, 'Cu': 3.0, 'Gd': 1.0, 'O': 6.97, 'Pr': 0.35000000000000003}",10.0,10.0,0.0,1,Gd1 Ba1.65 Pr0.35 Cu3 O6.97
3794,[5783],Nd1.35Ba1.65Cu3O7.02,Nd1.35Ba1.65Cu3O7.02,"{'Ba': 1.65, 'Cu': 3.0, 'Nd': 1.35, 'O': 7.02}",35.9,35.9,0.0,1,Nd1.35 Ba1.65 Cu3 O7.02
3795,[813],Sm1.35Ba1.65Cu3O7-Z,Sm1.35Ba1.65Cu3O7,"{'Ba': 1.65, 'Cu': 3.0, 'O': 7.0, 'Sm': 1.35}",8.5,8.5,0.0,1,Sm1.35 Ba1.65 Cu3 O7
3796,[477],Sm1.35Ba1.65Cu3O7.07,Sm1.35Ba1.65Cu3O7.07,"{'Ba': 1.65, 'Cu': 3.0, 'O': 7.07, 'Sm': 1.35}",26.2,26.2,0.0,1,Sm1.35 Ba1.65 Cu3 O7.07
3797,[10192],Y1Ba1.65Sr0.35Cu4O8,Y1Ba1.65Sr0.35Cu4O8,"{'Ba': 1.65, 'Cu': 4.0, 'O': 8.0, 'Sr': 0.35000000000000003, 'Y': 1.0}",80.8,80.8,0.0,1,Y1 Ba1.65 Sr0.35 Cu4 O8
3798,[6428],Nd1Ba1.65La0.35O6.69,Nd1Ba1.65La0.35O6.69,"{'Ba': 1.65, 'La': 0.35000000000000003, 'Nd': 1.0, 'O': 6.69}",36.5,36.5,0.0,1,Nd1 Ba1.65 La0.35 O6.69
3799,[10533],Hg0.85Re0.15Ba1.66Sr0.34Ca2Cu3O8,Hg0.85Re0.15Ba1.66Sr0.34Ca2Cu3O8,"{'Ba': 1.6600000000000001, 'Ca': 2.0, 'Cu': 3.0, 'Hg': 0.85, 'O': 8.0, 'Re': 0.15, 'Sr': 0.34}",131.3,131.3,0.0,1,Hg0.85 Re0.15 Ba1.66 Sr0.34 Ca2 Cu3 O8
3800,[577],Y1Ba1.66La0.34Cu3O7.073,Y1Ba1.66La0.34Cu3O7.073,"{'Ba': 1.6600000000000001, 'Cu': 3.0, 'La': 0.34, 'O': 7.073, 'Y': 1.0}",56.0,56.0,0.0,1,Y1 Ba1.66 La0.34 Cu3 O7.073
3801,[3843],Ba1.7K0.3Pb0.95Bi0.05O4,Ba1.7K0.3Pb0.95Bi0.05O4,"{'Ba': 1.7000000000000002, 'Bi': 0.05, 'K': 0.30000000000000004, 'O': 4.0, 'Pb': 0.9500000000000001}",11.0,11.0,0.0,1,Ba1.7 K0.3 Pb0.95 Bi0.05 O4
3802,[3845],Ba1.7K0.3Pb0.9Bi0.1O4,Ba1.7K0.3Pb0.9Bi0.1O4,"{'Ba': 1.7000000000000002, 'Bi': 0.1, 'K': 0.30000000000000004, 'O': 4.0, 'Pb': 0.9}",11.0,11.0,0.0,1,Ba1.7 K0.3 Pb0.9 Bi0.1 O4
3803,[3217],La1.25Ca0.05Ba1.7Cu3O7.03,La1.25Ca0.05Ba1.7Cu3O7.03,"{'Ba': 1.7000000000000002, 'Ca': 0.05, 'Cu': 3.0, 'La': 1.25, 'O': 7.03}",38.6,38.6,0.0,1,La1.25 Ca0.05 Ba1.7 Cu3 O7.03
3804,[4787],Y0.9Ca0.1Ba1.7La0.3Cu3O7.04,Y0.9Ca0.1Ba1.7La0.3Cu3O7.04,"{'Ba': 1.7000000000000002, 'Ca': 0.1, 'Cu': 3.0, 'La': 0.30000000000000004, 'O': 7.04, 'Y': 0.9}",82.0,82.0,0.0,1,Y0.9 Ca0.1 Ba1.7 La0.3 Cu3 O7.04
3805,[10988],Hg2Ba1.7Sr0.3Y0.8Ca0.2Cu2O8-z,Hg2Ba1.7Sr0.3Y0.8Ca0.2Cu2O8,"{'Ba': 1.7000000000000002, 'Ca': 0.2, 'Cu': 2.0, 'Hg': 2.0, 'O': 8.0, 'Sr': 0.30000000000000004, 'Y': 0.8}",39.5,39.5,0.0,1,Hg2 Ba1.7 Sr0.3 Y0.8 Ca0.2 Cu2 O8
3806,[4831],Nd1.1Ba1.7Ca0.2Cu3O6.894,Nd1.1Ba1.7Ca0.2Cu3O6.894,"{'Ba': 1.7000000000000002, 'Ca': 0.2, 'Cu': 3.0, 'Nd': 1.1, 'O': 6.894}",65.0,65.0,0.0,1,Nd1.1 Ba1.7 Ca0.2 Cu3 O6.894
3807,[4794],Y0.7Ca0.3Ba1.7La0.3Cu3O6.92,Y0.7Ca0.3Ba1.7La0.3Cu3O6.92,"{'Ba': 1.7000000000000002, 'Ca': 0.30000000000000004, 'Cu': 3.0, 'La': 0.30000000000000004, 'O': 6.92, 'Y': 0.7000000000000001}",82.0,82.0,0.0,1,Y0.7 Ca0.3 Ba1.7 La0.3 Cu3 O6.92
3808,[7931],Y0.7Ca0.3Ba1.7La0.3Cu3O6.96,Y0.7Ca0.3Ba1.7La0.3Cu3O6.96,"{'Ba': 1.7000000000000002, 'Ca': 0.30000000000000004, 'Cu': 3.0, 'La': 0.30000000000000004, 'O': 6.96, 'Y': 0.7000000000000001}",78.0,78.0,0.0,1,Y0.7 Ca0.3 Ba1.7 La0.3 Cu3 O6.96
3809,[4698],Y0.4Pr0.6Ba1.7Ca0.3Cu3O7-z,Y0.4Pr0.6Ba1.7Ca0.3Cu3O7,"{'Ba': 1.7000000000000002, 'Ca': 0.30000000000000004, 'Cu': 3.0, 'O': 7.0, 'Pr': 0.6000000000000001, 'Y': 0.4}",29.0,29.0,0.0,1,Y0.4 Pr0.6 Ba1.7 Ca0.3 Cu3 O7
3810,[4837],Nd0.9Ba1.7Ca0.4Cu3O6.801,Nd0.9Ba1.7Ca0.4Cu3O6.801,"{'Ba': 1.7000000000000002, 'Ca': 0.4, 'Cu': 3.0, 'Nd': 0.9, 'O': 6.801}",72.0,72.0,0.0,1,Nd0.9 Ba1.7 Ca0.4 Cu3 O6.801
3811,[7418],La1.7Yb0.4Ba1.7Ca0.8Cu5O11.795,La1.7Yb0.4Ba1.7Ca0.8Cu5O11.795,"{'Ba': 1.7000000000000002, 'Ca': 0.8, 'Cu': 5.0, 'La': 1.7000000000000002, 'O': 11.795, 'Yb': 0.4}",76.0,76.0,0.0,1,La1.7 Yb0.4 Ba1.7 Ca0.8 Cu5 O11.795
3812,[3975],Y1Ba1.7Cs0.3Cu3O6.6,Y1Ba1.7Cs0.3Cu3O6.6,"{'Ba': 1.7000000000000002, 'Cs': 0.30000000000000004, 'Cu': 3.0, 'O': 6.6, 'Y': 1.0}",93.75,93.75,0.0,1,Y1 Ba1.7 Cs0.3 Cu3 O6.6
3813,[2133],Tl1Ba1.7La0.3Cu1O5-Y,Tl1Ba1.7La0.3Cu1O5,"{'Ba': 1.7000000000000002, 'Cu': 1.0, 'La': 0.30000000000000004, 'O': 5.0, 'Tl': 1.0}",42.0,42.0,0.0,1,Tl1 Ba1.7 La0.3 Cu1 O5
3814,[9944],Eu0.6Pr0.4Ba1.7Sr0.3Cu3O6.93,Eu0.6Pr0.4Ba1.7Sr0.3Cu3O6.93,"{'Ba': 1.7000000000000002, 'Cu': 3.0, 'Eu': 0.6000000000000001, 'O': 6.93, 'Pr': 0.4, 'Sr': 0.30000000000000004}",28.0,28.0,0.0,1,Eu0.6 Pr0.4 Ba1.7 Sr0.3 Cu3 O6.93
3815,[2904],Eu1.3Ba1.7Cu3O7.15,Eu1.3Ba1.7Cu3O7.15,"{'Ba': 1.7000000000000002, 'Cu': 3.0, 'Eu': 1.3, 'O': 7.15}",39.5,39.5,0.0,1,Eu1.3 Ba1.7 Cu3 O7.15
3816,[9216],Gd0.7Ba1.7Cu3O7-z,Gd0.7Ba1.7Cu3O7,"{'Ba': 1.7000000000000002, 'Cu': 3.0, 'Gd': 0.7000000000000001, 'O': 7.0}",36.55,36.55,0.0,1,Gd0.7 Ba1.7 Cu3 O7
3817,[10846],Gd1Ba1.7Pr0.3Cu3O7.06,Gd1Ba1.7Pr0.3Cu3O7.06,"{'Ba': 1.7000000000000002, 'Cu': 3.0, 'Gd': 1.0, 'O': 7.06, 'Pr': 0.30000000000000004}",22.9,22.9,0.0,1,Gd1 Ba1.7 Pr0.3 Cu3 O7.06
3818,[3969],Y1Ba1.7K0.3Cu3O6.54,Y1Ba1.7K0.3Cu3O6.54,"{'Ba': 1.7000000000000002, 'Cu': 3.0, 'K': 0.30000000000000004, 'O': 6.54, 'Y': 1.0}",92.85,92.85,0.0,1,Y1 Ba1.7 K0.3 Cu3 O6.54
3819,"[387, 4752, 11503]",Y1Ba1.7La0.3Cu3O7,Y1Ba1.7La0.3Cu3O7,"{'Ba': 1.7000000000000002, 'Cu': 3.0, 'La': 0.30000000000000004, 'O': 7.0, 'Y': 1.0}",67.0,59.75,5.2394338117,3,Y1 Ba1.7 La0.3 Cu3 O7
3820,"[4782, 9442]",Y1Ba1.7La0.3Cu3O7.02,Y1Ba1.7La0.3Cu3O7.02,"{'Ba': 1.7000000000000002, 'Cu': 3.0, 'La': 0.30000000000000004, 'O': 7.02, 'Y': 1.0}",77.0,69.0,8.0,2,Y1 Ba1.7 La0.3 Cu3 O7.02
3821,[576],Y1Ba1.7La0.3Cu3O7.059,Y1Ba1.7La0.3Cu3O7.059,"{'Ba': 1.7000000000000002, 'Cu': 3.0, 'La': 0.30000000000000004, 'O': 7.059, 'Y': 1.0}",61.4,61.4,0.0,1,Y1 Ba1.7 La0.3 Cu3 O7.059
3822,"[2489, 9372, 9435]",Y1Ba1.7La0.3Cu3O7.1,Y1Ba1.7La0.3Cu3O7.1,"{'Ba': 1.7000000000000002, 'Cu': 3.0, 'La': 0.30000000000000004, 'O': 7.1, 'Y': 1.0}",80.5,73.5,9.5481237249,3,Y1 Ba1.7 La0.3 Cu3 O7.1
3823,[4172],La1.3Ba1.7SrCu3O6.885,La1.3Ba1.7SrCu3O6.885,"{'Ba': 1.7000000000000002, 'Cu': 3.0, 'La': 1.3, 'O': 6.885, 'Sr': 1.0}",32.0,32.0,0.0,1,La1.3 Ba1.7 Sr1 Cu3 O6.885
3824,[8211],Lu0.5Pr0.5Ba1.7Sr0.3Cu3O6.92,Lu0.5Pr0.5Ba1.7Sr0.3Cu3O6.92,"{'Ba': 1.7000000000000002, 'Cu': 3.0, 'Lu': 0.5, 'O': 6.92, 'Pr': 0.5, 'Sr': 0.30000000000000004}",20.0,20.0,0.0,1,Lu0.5 Pr0.5 Ba1.7 Sr0.3 Cu3 O6.92
3825,[8210],Lu0.55Pr0.45Ba1.7Sr0.3Cu3O6.92,Lu0.55Pr0.45Ba1.7Sr0.3Cu3O6.92,"{'Ba': 1.7000000000000002, 'Cu': 3.0, 'Lu': 0.55, 'O': 6.92, 'Pr': 0.45, 'Sr': 0.30000000000000004}",35.0,35.0,0.0,1,Lu0.55 Pr0.45 Ba1.7 Sr0.3 Cu3 O6.92
3826,[8209],Lu0.6Pr0.4Ba1.7Sr0.3Cu3O6.91,Lu0.6Pr0.4Ba1.7Sr0.3Cu3O6.91,"{'Ba': 1.7000000000000002, 'Cu': 3.0, 'Lu': 0.6000000000000001, 'O': 6.91, 'Pr': 0.4, 'Sr': 0.30000000000000004}",47.0,47.0,0.0,1,Lu0.6 Pr0.4 Ba1.7 Sr0.3 Cu3 O6.91
3827,[8208],Lu0.65Pr0.35Ba1.7Sr0.3Cu3O6.93,Lu0.65Pr0.35Ba1.7Sr0.3Cu3O6.93,"{'Ba': 1.7000000000000002, 'Cu': 3.0, 'Lu': 0.65, 'O': 6.93, 'Pr': 0.35000000000000003, 'Sr': 0.30000000000000004}",52.0,52.0,0.0,1,Lu0.65 Pr0.35 Ba1.7 Sr0.3 Cu3 O6.93
3828,[8207],Lu0.7Pr0.3Ba1.7Sr0.3Cu3O6.89,Lu0.7Pr0.3Ba1.7Sr0.3Cu3O6.89,"{'Ba': 1.7000000000000002, 'Cu': 3.0, 'Lu': 0.7000000000000001, 'O': 6.89, 'Pr': 0.30000000000000004, 'Sr': 0.30000000000000004}",61.0,61.0,0.0,1,Lu0.7 Pr0.3 Ba1.7 Sr0.3 Cu3 O6.89
3829,[8206],Lu0.75Pr0.25Ba1.7Sr0.3Cu3O6.9,Lu0.75Pr0.25Ba1.7Sr0.3Cu3O6.9,"{'Ba': 1.7000000000000002, 'Cu': 3.0, 'Lu': 0.75, 'O': 6.9, 'Pr': 0.25, 'Sr': 0.30000000000000004}",66.0,66.0,0.0,1,Lu0.75 Pr0.25 Ba1.7 Sr0.3 Cu3 O6.9
3830,[8205],Lu0.8Pr0.2Ba1.7Sr0.3Cu3O6.93,Lu0.8Pr0.2Ba1.7Sr0.3Cu3O6.93,"{'Ba': 1.7000000000000002, 'Cu': 3.0, 'Lu': 0.8, 'O': 6.93, 'Pr': 0.2, 'Sr': 0.30000000000000004}",75.0,75.0,0.0,1,Lu0.8 Pr0.2 Ba1.7 Sr0.3 Cu3 O6.93
3831,[8204],Lu0.85Pr0.15Ba1.7Sr0.3Cu3O6.91,Lu0.85Pr0.15Ba1.7Sr0.3Cu3O6.91,"{'Ba': 1.7000000000000002, 'Cu': 3.0, 'Lu': 0.85, 'O': 6.91, 'Pr': 0.15, 'Sr': 0.30000000000000004}",77.0,77.0,0.0,1,Lu0.85 Pr0.15 Ba1.7 Sr0.3 Cu3 O6.91
3832,[8203],Lu0.9Pr0.1Ba1.7Sr0.3Cu3O6.95,Lu0.9Pr0.1Ba1.7Sr0.3Cu3O6.95,"{'Ba': 1.7000000000000002, 'Cu': 3.0, 'Lu': 0.9, 'O': 6.95, 'Pr': 0.1, 'Sr': 0.30000000000000004}",79.0,79.0,0.0,1,Lu0.9 Pr0.1 Ba1.7 Sr0.3 Cu3 O6.95
3833,[8202],Lu1Ba1.7Sr0.3Cu3O7-d,Lu1Ba1.7Sr0.3Cu3O7,"{'Ba': 1.7000000000000002, 'Cu': 3.0, 'Lu': 1.0, 'O': 7.0, 'Sr': 0.30000000000000004}",79.0,79.0,0.0,1,Lu1 Ba1.7 Sr0.3 Cu3 O7