,sc_id,supercon_formula,cleaned_formula,material_dict,highest_Tc,average_Tc,std_Tc,entry_count,composition
447,[15864],Nb3Al0.9Be0.1,Nb3Al0.9Be0.1,"{'Al': 0.9, 'Be': 0.1, 'Nb': 3.0}",19.8,19.8,0.0,1,Nb3 Al0.9 Be0.1
448,[17526],Ca1Al0.9Ga0.1Si1,Ca1Al0.9Ga0.1Si1,"{'Al': 0.9, 'Ca': 1.0, 'Ga': 0.1, 'Si': 1.0}",6.54,6.54,0.0,1,Ca1 Al0.9 Ga0.1 Si1
449,[17037],Ca1Al0.9Si1.1,Ca1Al0.9Si1.1,"{'Al': 0.9, 'Ca': 1.0, 'Si': 1.1}",5.57,5.57,0.0,1,Ca1 Al0.9 Si1.1
450,"[12829, 17670]",Al0.9Ga0.1Nb3,Al0.9Ga0.1Nb3,"{'Al': 0.9, 'Ga': 0.1, 'Nb': 3.0}",18.5,18.1,0.4,2,Al0.9 Ga0.1 Nb3
451,[12840],Al0.9Ge0.1,Al0.9Ge0.1,"{'Al': 0.9, 'Ge': 0.1}",6.45,6.45,0.0,1,Al0.9 Ge0.1
452,"[12836, 16086, 16095, 17665]",Al0.9Ge0.1Nb3,Al0.9Ge0.1Nb3,"{'Al': 0.9, 'Ge': 0.1, 'Nb': 3.0}",19.7,19.125,0.5117372373,4,Al0.9 Ge0.1 Nb3
453,[17674],Nb3Al0.9In0.1,Nb3Al0.9In0.1,"{'Al': 0.9, 'In': 0.1, 'Nb': 3.0}",18.3,18.3,0.0,1,Nb3 Al0.9 In0.1
454,[19990],Al0.9Li0.1,Al0.9Li0.1,"{'Al': 0.9, 'Li': 0.1}",1.29,1.29,0.0,1,Al0.9 Li0.1
455,[12873],Al0.9Nb3Sb0.1,Al0.9Nb3Sb0.1,"{'Al': 0.9, 'Nb': 3.0, 'Sb': 0.1}",18.06,18.06,0.0,1,Al0.9 Nb3 Sb0.1
456,[15831],Nb3Al0.9Se0.1,Nb3Al0.9Se0.1,"{'Al': 0.9, 'Nb': 3.0, 'Se': 0.1}",17.6,17.6,0.0,1,Nb3 Al0.9 Se0.1
457,[14784],Nb3Sn0.1Al0.9,Nb3Sn0.1Al0.9,"{'Al': 0.9, 'Nb': 3.0, 'Sn': 0.1}",16.1,16.1,0.0,1,Nb3 Sn0.1 Al0.9
458,[17677],Nb3Al0.9Zn0.1,Nb3Al0.9Zn0.1,"{'Al': 0.9, 'Nb': 3.0, 'Zn': 0.1}",18.1,18.1,0.0,1,Nb3 Al0.9 Zn0.1
459,[15842],Nb3Al0.907Ga0.093,Nb3Al0.907Ga0.093,"{'Al': 0.907, 'Ga': 0.093, 'Nb': 3.0}",19.1,19.1,0.0,1,Nb3 Al0.907 Ga0.093
460,[15852],Nb3Al0.91Ge0.09,Nb3Al0.91Ge0.09,"{'Al': 0.91, 'Ge': 0.09, 'Nb': 3.0}",19.8,19.8,0.0,1,Nb3 Al0.91 Ge0.09
461,[15851],Nb3Al0.92Ge0.08,Nb3Al0.92Ge0.08,"{'Al': 0.92, 'Ge': 0.08, 'Nb': 3.0}",19.9,19.9,0.0,1,Nb3 Al0.92 Ge0.08
462,[15830],Nb3Al0.924Se0.076,Nb3Al0.924Se0.076,"{'Al': 0.924, 'Nb': 3.0, 'Se': 0.076}",17.6,17.6,0.0,1,Nb3 Al0.924 Se0.076
463,[15841],Nb3Al0.927Ga0.073,Nb3Al0.927Ga0.073,"{'Al': 0.927, 'Ga': 0.073, 'Nb': 3.0}",19.2,19.2,0.0,1,Nb3 Al0.927 Ga0.073
464,[15850],Nb3Al0.93Ge0.07,Nb3Al0.93Ge0.07,"{'Al': 0.93, 'Ge': 0.07, 'Nb': 3.0}",20.0,20.0,0.0,1,Nb3 Al0.93 Ge0.07
465,[15837],Nb3Al0.935Si0.065,Nb3Al0.935Si0.065,"{'Al': 0.935, 'Nb': 3.0, 'Si': 0.065}",18.4,18.4,0.0,1,Nb3 Al0.935 Si0.065
466,[15849],Nb3Al0.94Ge0.06,Nb3Al0.94Ge0.06,"{'Al': 0.9400000000000001, 'Ge': 0.06, 'Nb': 3.0}",20.0,20.0,0.0,1,Nb3 Al0.94 Ge0.06
467,[15829],Nb3Al0.94Se0.06,Nb3Al0.94Se0.06,"{'Al': 0.9400000000000001, 'Nb': 3.0, 'Se': 0.06}",17.8,17.8,0.0,1,Nb3 Al0.94 Se0.06
468,[15836],Nb3Al0.945Si0.055,Nb3Al0.945Si0.055,"{'Al': 0.9450000000000001, 'Nb': 3.0, 'Si': 0.055}",18.4,18.4,0.0,1,Nb3 Al0.945 Si0.055
469,[12824],Al0.95B0.05Nb3,Al0.95B0.05Nb3,"{'Al': 0.9500000000000001, 'B': 0.05, 'Nb': 3.0}",19.1,19.1,0.0,1,Al0.95 B0.05 Nb3
470,[12100],Ba1Al0.95Si1.05,Ba1Al0.95Si1.05,"{'Al': 0.9500000000000001, 'Ba': 1.0, 'Si': 1.05}",2.8,2.8,0.0,1,Ba1 Al0.95 Si1.05
471,[456],Y1Ba2Cu2.05Al0.95O6.7,Y1Ba2Cu2.05Al0.95O6.7,"{'Al': 0.9500000000000001, 'Ba': 2.0, 'Cu': 2.05, 'O': 6.7, 'Y': 1.0}",63.0,63.0,0.0,1,Y1 Ba2 Cu2.05 Al0.95 O6.7
472,"[12821, 15863]",Al0.95Be0.05Nb3,Al0.95Be0.05Nb3,"{'Al': 0.9500000000000001, 'Be': 0.05, 'Nb': 3.0}",19.8,19.7,0.1,2,Al0.95 Be0.05 Nb3
473,[15840],Nb3Al0.95Ga0.05,Nb3Al0.95Ga0.05,"{'Al': 0.9500000000000001, 'Ga': 0.05, 'Nb': 3.0}",19.2,19.2,0.0,1,Nb3 Al0.95 Ga0.05
474,[15848],Nb3Al0.95Ge0.05,Nb3Al0.95Ge0.05,"{'Al': 0.9500000000000001, 'Ge': 0.05, 'Nb': 3.0}",20.0,20.0,0.0,1,Nb3 Al0.95 Ge0.05
475,[19989],Al0.95Li0.05,Al0.95Li0.05,"{'Al': 0.9500000000000001, 'Li': 0.05}",1.13,1.13,0.0,1,Al0.95 Li0.05
476,[12874],Al0.95Nb3Sb0.5,Al0.95Nb3Sb0.5,"{'Al': 0.9500000000000001, 'Nb': 3.0, 'Sb': 0.5}",17.81,17.81,0.0,1,Al0.95 Nb3 Sb0.5
477,[15828],Nb3Al0.952Se0.048,Nb3Al0.952Se0.048,"{'Al': 0.9520000000000001, 'Nb': 3.0, 'Se': 0.048}",18.0,18.0,0.0,1,Nb3 Al0.952 Se0.048
478,[15835],Nb3Al0.956Si0.044,Nb3Al0.956Si0.044,"{'Al': 0.9560000000000001, 'Nb': 3.0, 'Si': 0.044}",18.5,18.5,0.0,1,Nb3 Al0.956 Si0.044
479,[15847],Nb3Al0.96Ge0.04,Nb3Al0.96Ge0.04,"{'Al': 0.96, 'Ge': 0.04, 'Nb': 3.0}",19.8,19.8,0.0,1,Nb3 Al0.96 Ge0.04
480,[12841],Al0.964Ge0.036,Al0.964Ge0.036,"{'Al': 0.964, 'Ge': 0.036000000000000004}",2.74,2.74,0.0,1,Al0.964 Ge0.036
481,[15834],Nb3Al0.964Si0.036,Nb3Al0.964Si0.036,"{'Al': 0.964, 'Nb': 3.0, 'Si': 0.036000000000000004}",18.4,18.4,0.0,1,Nb3 Al0.964 Si0.036
482,[15839],Nb3Al0.967Ga0.033,Nb3Al0.967Ga0.033,"{'Al': 0.967, 'Ga': 0.033, 'Nb': 3.0}",19.0,19.0,0.0,1,Nb3 Al0.967 Ga0.033
483,[15827],Nb3Al0.967Se0.033,Nb3Al0.967Se0.033,"{'Al': 0.967, 'Nb': 3.0, 'Se': 0.033}",18.1,18.1,0.0,1,Nb3 Al0.967 Se0.033
484,[15845],Nb3Al0.97Ge0.03,Nb3Al0.97Ge0.03,"{'Al': 0.97, 'Ge': 0.03, 'Nb': 3.0}",19.6,19.6,0.0,1,Nb3 Al0.97 Ge0.03
485,[19988],Al0.97Li0.03,Al0.97Li0.03,"{'Al': 0.97, 'Li': 0.03}",1.05,1.05,0.0,1,Al0.97 Li0.03
486,[15833],Nb3Al0.975Si0.025,Nb3Al0.975Si0.025,"{'Al': 0.975, 'Nb': 3.0, 'Si': 0.025}",18.5,18.5,0.0,1,Nb3 Al0.975 Si0.025
487,[15844],Nb3Al0.98Ge0.02,Nb3Al0.98Ge0.02,"{'Al': 0.98, 'Ge': 0.02, 'Nb': 3.0}",19.3,19.3,0.0,1,Nb3 Al0.98 Ge0.02
488,[15826],Nb3Al0.98Se0.02,Nb3Al0.98Se0.02,"{'Al': 0.98, 'Nb': 3.0, 'Se': 0.02}",18.4,18.4,0.0,1,Nb3 Al0.98 Se0.02
489,[15838],Nb3Al0.983Ga0.017,Nb3Al0.983Ga0.017,"{'Al': 0.983, 'Ga': 0.017, 'Nb': 3.0}",18.8,18.8,0.0,1,Nb3 Al0.983 Ga0.017
490,[15832],Nb3Al0.985Si0.015,Nb3Al0.985Si0.015,"{'Al': 0.985, 'Nb': 3.0, 'Si': 0.015}",18.6,18.6,0.0,1,Nb3 Al0.985 Si0.015
491,[19987],Al0.99Li0.01,Al0.99Li0.01,"{'Al': 0.99, 'Li': 0.01}",1.07,1.07,0.0,1,Al0.99 Li0.01
492,[15843],Nb3Al0.991Ge0.009,Nb3Al0.991Ge0.009,"{'Al': 0.991, 'Ge': 0.009000000000000001, 'Nb': 3.0}",19.0,19.0,0.0,1,Nb3 Al0.991 Ge0.009
493,[12901],Al0.992Zn0.008,Al0.992Zn0.008,"{'Al': 0.992, 'Zn': 0.008}",1.1320000000000001,1.1320000000000001,0.0,1,Al0.992 Zn0.008
494,[12831],Al0.997Er0.003,Al0.997Er0.003,"{'Al': 0.997, 'Er': 0.003}",1.658,1.658,0.0,1,Al0.997 Er0.003
495,[18821],Al0.998Mn0.002,Al0.998Mn0.002,"{'Al': 0.998, 'Mn': 0.002}",0.262,0.262,0.0,1,Al0.998 Mn0.002
496,[12830],Al0.999Fe0.001,Al0.999Fe0.001,"{'Al': 0.999, 'Fe': 0.001}",1.5,1.5,0.0,1,Al0.999 Fe0.001
497,[17663],Al0.999Mn0.001,Al0.999Mn0.001,"{'Al': 0.999, 'Mn': 0.001}",0.596,0.596,0.0,1,Al0.999 Mn0.001
498,"[12165, 12547, 12815, 14875, 14876, 18225, 19813, 19986, 20507, 20825]",Al1,Al1,{'Al': 1.0},1.8,1.2466300000000001,0.1885894804,10,Al1
499,[22808],Fe2As2Ca6Al1Ti3O11,Fe2As2Ca6Al1Ti3O11,"{'Al': 1.0, 'As': 2.0, 'Ca': 6.0, 'Fe': 2.0, 'O': 11.0, 'Ti': 3.0}",32.0,32.0,0.0,1,Fe2 As2 Ca6 Al1 Ti3 O11
500,[19340],Al1Sc1Au2,Al1Sc1Au2,"{'Al': 1.0, 'Au': 2.0, 'Sc': 1.0}",4.4,4.4,0.0,1,Al1 Sc1 Au2
501,"[12812, 14864]",Al1Au4,Al1Au4,"{'Al': 1.0, 'Au': 4.0}",0.7000000000000001,0.55,0.15,2,Al1 Au4
502,[21134],Yb1Al1B4,Yb1Al1B4,"{'Al': 1.0, 'B': 4.0, 'Yb': 1.0}",0.08,0.08,0.0,1,Yb1 Al1 B4
503,[21233],Ba1Al1Ge1,Ba1Al1Ge1,"{'Al': 1.0, 'Ba': 1.0, 'Ge': 1.0}",6.3,6.3,0.0,1,Ba1 Al1 Ge1
504,[21234],Ba1Al1Sn1,Ba1Al1Sn1,"{'Al': 1.0, 'Ba': 1.0, 'Sn': 1.0}",2.9,2.9,0.0,1,Ba1 Al1 Sn1
505,[26269],Mg1C1Na1Sn1Ca1Al1Si1Ni1In1Pb1,Mg1C1Na1Sn1Ca1Al1Si1Ni1In1Pb1,"{'Al': 1.0, 'C': 1.0, 'Ca': 1.0, 'In': 1.0, 'Mg': 1.0, 'Na': 1.0, 'Ni': 1.0, 'Pb': 1.0, 'Si': 1.0, 'Sn': 1.0}",5.5,5.5,0.0,1,Mg1 C1 Na1 Sn1 Ca1 Al1 Si1 Ni1 In1 Pb1
506,[6345],Al1Sr2Ho0.5Ca0.5Cu2O7.05,Al1Sr2Ho0.5Ca0.5Cu2O7.05,"{'Al': 1.0, 'Ca': 0.5, 'Cu': 2.0, 'Ho': 0.5, 'O': 7.05, 'Sr': 2.0}",18.0,18.0,0.0,1,Al1 Sr2 Ho0.5 Ca0.5 Cu2 O7.05
507,[6346],Al1Sr2Ho0.4Ca0.6Cu2O7,Al1Sr2Ho0.4Ca0.6Cu2O7,"{'Al': 1.0, 'Ca': 0.6000000000000001, 'Cu': 2.0, 'Ho': 0.4, 'O': 7.0, 'Sr': 2.0}",24.0,24.0,0.0,1,Al1 Sr2 Ho0.4 Ca0.6 Cu2 O7
508,"[11761, 11787, 11788, 11789, 16580, 17030, 17261, 17274, 17307, 17395, 17525, 20222, 20223, 20224, 20225, 20226, 20227, 21230, 22553, 22554, 22555, 24138, 24328]",Ca1Al1Si1,Ca1Al1Si1,"{'Al': 1.0, 'Ca': 1.0, 'Si': 1.0}",7.9,6.5747826087,1.4577256543,23,Ca1 Al1 Si1
509,[4466],Al1Sr2Ca1.4Y0.6Cu3O9.1,Al1Sr2Ca1.4Y0.6Cu3O9.1,"{'Al': 1.0, 'Ca': 1.4, 'Cu': 3.0, 'O': 9.1, 'Sr': 2.0, 'Y': 0.6000000000000001}",14.0,14.0,0.0,1,Al1 Sr2 Ca1.4 Y0.6 Cu3 O9.1
510,[4461],Al1Sr2Ca2Cu3O9.3,Al1Sr2Ca2Cu3O9.3,"{'Al': 1.0, 'Ca': 2.0, 'Cu': 3.0, 'O': 9.3, 'Sr': 2.0}",63.0,63.0,0.0,1,Al1 Sr2 Ca2 Cu3 O9.3
511,[4462],Al1Sr2Ca2Cu3O9.5,Al1Sr2Ca2Cu3O9.5,"{'Al': 1.0, 'Ca': 2.0, 'Cu': 3.0, 'O': 9.5, 'Sr': 2.0}",69.0,69.0,0.0,1,Al1 Sr2 Ca2 Cu3 O9.5
512,[4463],Al1Sr2Ca2Cu3O9.7,Al1Sr2Ca2Cu3O9.7,"{'Al': 1.0, 'Ca': 2.0, 'Cu': 3.0, 'O': 9.7, 'Sr': 2.0}",72.0,72.0,0.0,1,Al1 Sr2 Ca2 Cu3 O9.7
513,[4464],Al1Sr2Ca2Cu3O9.9,Al1Sr2Ca2Cu3O9.9,"{'Al': 1.0, 'Ca': 2.0, 'Cu': 3.0, 'O': 9.9, 'Sr': 2.0}",77.0,77.0,0.0,1,Al1 Sr2 Ca2 Cu3 O9.9
514,[4465],Al1Sr2Ca2Cu3O10.1,Al1Sr2Ca2Cu3O10.1,"{'Al': 1.0, 'Ca': 2.0, 'Cu': 3.0, 'O': 10.1, 'Sr': 2.0}",76.0,76.0,0.0,1,Al1 Sr2 Ca2 Cu3 O10.1
515,[19573],Al1Ce0.01La3,Al1Ce0.01La3,"{'Al': 1.0, 'Ce': 0.01, 'La': 3.0}",3.92,3.92,0.0,1,Al1 Ce0.01 La3
516,[19574],Al1Ce0.0165La3,Al1Ce0.0165La3,"{'Al': 1.0, 'Ce': 0.0165, 'La': 3.0}",1.45,1.45,0.0,1,Al1 Ce0.0165 La3
517,[19575],Al1Ce0.017La3,Al1Ce0.017La3,"{'Al': 1.0, 'Ce': 0.017, 'La': 3.0}",0.77,0.77,0.0,1,Al1 Ce0.017 La3
518,[12834],Al1Cr0.3Nb2.7,Al1Cr0.3Nb2.7,"{'Al': 1.0, 'Cr': 0.30000000000000004, 'Nb': 2.7}",14.1,14.1,0.0,1,Al1 Cr0.3 Nb2.7
519,[12832],Al1Cu1,Al1Cu1,"{'Al': 1.0, 'Cu': 1.0}",3.45,3.45,0.0,1,Al1 Cu1
520,[19576],Al1Gd0.001La3,Al1Gd0.001La3,"{'Al': 1.0, 'Gd': 0.001, 'La': 3.0}",5.6,5.6,0.0,1,Al1 Gd0.001 La3
521,[19577],Al1Gd0.003La3,Al1Gd0.003La3,"{'Al': 1.0, 'Gd': 0.003, 'La': 3.0}",4.58,4.58,0.0,1,Al1 Gd0.003 La3
522,[19578],Al1Gd0.0065La3,Al1Gd0.0065La3,"{'Al': 1.0, 'Gd': 0.006500000000000001, 'La': 3.0}",2.79,2.79,0.0,1,Al1 Gd0.0065 La3
523,[12839],Al1Ge1,Al1Ge1,"{'Al': 1.0, 'Ge': 1.0}",5.5,5.5,0.0,1,Al1 Ge1
524,[12837],Al1Ge1Nb3,Al1Ge1Nb3,"{'Al': 1.0, 'Ge': 1.0, 'Nb': 3.0}",19.5,19.5,0.0,1,Al1 Ge1 Nb3
525,[21232],Sr1Al1Ge1,Sr1Al1Ge1,"{'Al': 1.0, 'Ge': 1.0, 'Sr': 1.0}",6.7,6.7,0.0,1,Sr1 Al1 Ge1
526,[18631],Al1Ge2,Al1Ge2,"{'Al': 1.0, 'Ge': 2.0}",1.75,1.75,0.0,1,Al1 Ge2
527,"[22087, 22089]",Y2Al1Ge3,Y2Al1Ge3,"{'Al': 1.0, 'Ge': 3.0, 'Y': 2.0}",4.5,4.5,0.0,2,Y2 Al1 Ge3
528,[15803],Nb2.985Hf0.015Al1,Nb2.985Hf0.015Al1,"{'Al': 1.0, 'Hf': 0.015, 'Nb': 2.985}",18.0,18.0,0.0,1,Nb2.985 Hf0.015 Al1
529,[15804],Nb2.919Hf0.081Al1,Nb2.919Hf0.081Al1,"{'Al': 1.0, 'Hf': 0.081, 'Nb': 2.919}",16.5,16.5,0.0,1,Nb2.919 Hf0.081 Al1
530,[15805],Nb2.85Hf0.15Al1,Nb2.85Hf0.15Al1,"{'Al': 1.0, 'Hf': 0.15, 'Nb': 2.85}",14.4,14.4,0.0,1,Nb2.85 Hf0.15 Al1
531,[20981],Pd2Hf0.5Y0.5Al1,Pd2Hf0.5Y0.5Al1,"{'Al': 1.0, 'Hf': 0.5, 'Pd': 2.0, 'Y': 0.5}",2.9,2.9,0.0,1,Pd2 Hf0.5 Y0.5 Al1
532,[20969],Pd2Hf0.75Y0.25Al1,Pd2Hf0.75Y0.25Al1,"{'Al': 1.0, 'Hf': 0.75, 'Pd': 2.0, 'Y': 0.25}",3.2,3.2,0.0,1,Pd2 Hf0.75 Y0.25 Al1
533,[20350],Ni2Hf1Al1,Ni2Hf1Al1,"{'Al': 1.0, 'Hf': 1.0, 'Ni': 2.0}",0.74,0.74,0.0,1,Ni2 Hf1 Al1
534,"[20295, 20965, 22890, 23986]",Pd2Hf1Al1,Pd2Hf1Al1,"{'Al': 1.0, 'Hf': 1.0, 'Pd': 2.0}",3.8,3.6025,0.146692706,4,Pd2 Hf1 Al1
535,"[26254, 26255]",La1Al1O3,La1Al1O3,"{'Al': 1.0, 'La': 1.0, 'O': 3.0}",0.36,0.328,0.032,2,La1 Al1 O3
536,[17561],La1Rh1Al1,La1Rh1Al1,"{'Al': 1.0, 'La': 1.0, 'Rh': 1.0}",2.4,2.4,0.0,1,La1 Rh1 Al1
537,"[12846, 19572, 19627]",Al1La3,Al1La3,"{'Al': 1.0, 'La': 3.0}",6.16,5.9866666667,0.1472714802,3,Al1 La3
538,[24327],Mg1Al1Si1,Mg1Al1Si1,"{'Al': 1.0, 'Mg': 1.0, 'Si': 1.0}",6.0,6.0,0.0,1,Mg1 Al1 Si1
539,[24136],Mg4Al1Si3,Mg4Al1Si3,"{'Al': 1.0, 'Mg': 4.0, 'Si': 3.0}",5.2,5.2,0.0,1,Mg4 Al1 Si3
540,"[14750, 15816]",Nb2.85Mo0.15Al1,Nb2.85Mo0.15Al1,"{'Al': 1.0, 'Mo': 0.15, 'Nb': 2.85}",15.5,14.45,1.05,2,Nb2.85 Mo0.15 Al1
541,[15817],Nb2.775Mo0.225Al1,Nb2.775Mo0.225Al1,"{'Al': 1.0, 'Mo': 0.225, 'Nb': 2.775}",13.8,13.8,0.0,1,Nb2.775 Mo0.225 Al1
542,"[14781, 15818]",Nb2.7Mo0.3Al1,Nb2.7Mo0.3Al1,"{'Al': 1.0, 'Mo': 0.30000000000000004, 'Nb': 2.7}",12.3,11.85,0.45,2,Nb2.7 Mo0.3 Al1
543,[14780],Nb2.1Mo0.9Al1,Nb2.1Mo0.9Al1,"{'Al': 1.0, 'Mo': 0.9, 'Nb': 2.1}",8.3,8.3,0.0,1,Nb2.1 Mo0.9 Al1
544,[14779],Nb1.5Mo1.5Al1,Nb1.5Mo1.5Al1,"{'Al': 1.0, 'Mo': 1.5, 'Nb': 1.5}",4.9,4.9,0.0,1,Nb1.5 Mo1.5 Al1
545,[14778],Nb1.2Mo1.8Al1,Nb1.2Mo1.8Al1,"{'Al': 1.0, 'Mo': 1.8, 'Nb': 1.2}",4.2,4.2,0.0,1,Nb1.2 Mo1.8 Al1
546,[14777],Nb0.9Mo2.1Al1,Nb0.9Mo2.1Al1,"{'Al': 1.0, 'Mo': 2.1, 'Nb': 0.9}",2.73,2.73,0.0,1,Nb0.9 Mo2.1 Al1
547,[12868],Al1Mo3,Al1Mo3,"{'Al': 1.0, 'Mo': 3.0}",0.58,0.58,0.0,1,Al1 Mo3
548,"[12867, 18633]",Al1Mo6Pd1,Al1Mo6Pd1,"{'Al': 1.0, 'Mo': 6.0, 'Pd': 1.0}",2.1,2.1,0.0,2,Al1 Mo6 Pd1
549,[12865],Al1N1,Al1N1,"{'Al': 1.0, 'N': 1.0}",1.55,1.55,0.0,1,Al1 N1
550,"[20082, 22992]",Na1Al1Si1,Na1Al1Si1,"{'Al': 1.0, 'Na': 1.0, 'Si': 1.0}",7.4,7.2,0.2,2,Na1 Al1 Si1
551,[20968],Pd2Zr0.9Nb0.1Al1,Pd2Zr0.9Nb0.1Al1,"{'Al': 1.0, 'Nb': 0.1, 'Pd': 2.0, 'Zr': 0.9}",2.1,2.1,0.0,1,Pd2 Zr0.9 Nb0.1 Al1
552,[21626],Ni2Nb1Al1,Ni2Nb1Al1,"{'Al': 1.0, 'Nb': 1.0, 'Ni': 2.0}",2.15,2.15,0.0,1,Ni2 Nb1 Al1
553,[12870],Al1Nb1Sn1,Al1Nb1Sn1,"{'Al': 1.0, 'Nb': 1.0, 'Sn': 1.0}",17.45,17.45,0.0,1,Al1 Nb1 Sn1
554,[12877],Al1Nb2Ni1,Al1Nb2Ni1,"{'Al': 1.0, 'Nb': 2.0, 'Ni': 1.0}",4.2,4.2,0.0,1,Al1 Nb2 Ni1
555,[12869],Al1Nb2.1V0.9,Al1Nb2.1V0.9,"{'Al': 1.0, 'Nb': 2.1, 'V': 0.9}",12.5,12.5,0.0,1,Al1 Nb2.1 V0.9
556,[15825],Nb2.55V0.45Al1,Nb2.55V0.45Al1,"{'Al': 1.0, 'Nb': 2.55, 'V': 0.45}",14.0,14.0,0.0,1,Nb2.55 V0.45 Al1
557,[15811],Nb2.58Ti0.42Al1,Nb2.58Ti0.42Al1,"{'Al': 1.0, 'Nb': 2.58, 'Ti': 0.42}",9.0,9.0,0.0,1,Nb2.58 Ti0.42 Al1
558,[15822],Nb2.64Ta0.36Al1,Nb2.64Ta0.36Al1,"{'Al': 1.0, 'Nb': 2.64, 'Ta': 0.36}",14.5,14.5,0.0,1,Nb2.64 Ta0.36 Al1
559,[12887],Al1Nb2.7V0.3,Al1Nb2.7V0.3,"{'Al': 1.0, 'Nb': 2.7, 'V': 0.30000000000000004}",15.4,15.4,0.0,1,Al1 Nb2.7 V0.3
560,[15824],Nb2.706V0.294Al1,Nb2.706V0.294Al1,"{'Al': 1.0, 'Nb': 2.706, 'V': 0.294}",15.6,15.6,0.0,1,Nb2.706 V0.294 Al1
561,[15810],Nb2.73Ti0.27Al1,Nb2.73Ti0.27Al1,"{'Al': 1.0, 'Nb': 2.73, 'Ti': 0.27}",11.5,11.5,0.0,1,Nb2.73 Ti0.27 Al1
562,[15821],Nb2.739Ta0.261Al1,Nb2.739Ta0.261Al1,"{'Al': 1.0, 'Nb': 2.739, 'Ta': 0.261}",15.4,15.4,0.0,1,Nb2.739 Ta0.261 Al1
563,[15809],Nb2.778Ti0.222Al1,Nb2.778Ti0.222Al1,"{'Al': 1.0, 'Nb': 2.778, 'Ti': 0.222}",13.0,13.0,0.0,1,Nb2.778 Ti0.222 Al1
564,[15820],Nb2.85Ta0.15Al1,Nb2.85Ta0.15Al1,"{'Al': 1.0, 'Nb': 2.85, 'Ta': 0.15}",16.8,16.8,0.0,1,Nb2.85 Ta0.15 Al1
565,[15815],Nb2.85W0.15Al1,Nb2.85W0.15Al1,"{'Al': 1.0, 'Nb': 2.85, 'W': 0.15}",15.2,15.2,0.0,1,Nb2.85 W0.15 Al1
566,[15823],Nb2.859V0.141Al1,Nb2.859V0.141Al1,"{'Al': 1.0, 'Nb': 2.859, 'V': 0.14100000000000001}",17.2,17.2,0.0,1,Nb2.859 V0.141 Al1
567,[15802],Nb2.859Zr0.141Al1,Nb2.859Zr0.141Al1,"{'Al': 1.0, 'Nb': 2.859, 'Zr': 0.14100000000000001}",13.6,13.6,0.0,1,Nb2.859 Zr0.141 Al1
568,[15808],Nb2.88Ti0.12Al1,Nb2.88Ti0.12Al1,"{'Al': 1.0, 'Nb': 2.88, 'Ti': 0.12}",15.0,15.0,0.0,1,Nb2.88 Ti0.12 Al1
569,[15814],Nb2.895W0.105Al1,Nb2.895W0.105Al1,"{'Al': 1.0, 'Nb': 2.895, 'W': 0.105}",16.0,16.0,0.0,1,Nb2.895 W0.105 Al1
570,[15796],Nb2.91Zr0.09Al1,Nb2.91Zr0.09Al1,"{'Al': 1.0, 'Nb': 2.91, 'Zr': 0.09}",14.6,14.6,0.0,1,Nb2.91 Zr0.09 Al1
571,[15807],Nb2.9175Ti0.0825Al1,Nb2.9175Ti0.0825Al1,"{'Al': 1.0, 'Nb': 2.9175, 'Ti': 0.0825}",16.0,16.0,0.0,1,Nb2.9175 Ti0.0825 Al1
572,[15801],Nb2.927Zr0.073Al1,Nb2.927Zr0.073Al1,"{'Al': 1.0, 'Nb': 2.927, 'Zr': 0.073}",14.8,14.8,0.0,1,Nb2.927 Zr0.073 Al1
573,[15819],Nb2.94Ta0.06Al1,Nb2.94Ta0.06Al1,"{'Al': 1.0, 'Nb': 2.94, 'Ta': 0.06}",17.7,17.7,0.0,1,Nb2.94 Ta0.06 Al1
574,[15813],Nb2.94W0.06Al1,Nb2.94W0.06Al1,"{'Al': 1.0, 'Nb': 2.94, 'W': 0.06}",17.2,17.2,0.0,1,Nb2.94 W0.06 Al1
575,[15812],Nb2.97W0.03Al1,Nb2.97W0.03Al1,"{'Al': 1.0, 'Nb': 2.9699999999999998, 'W': 0.03}",18.0,18.0,0.0,1,Nb2.97 W0.03 Al1
576,[15795],Nb2.97Zr0.03Al1,Nb2.97Zr0.03Al1,"{'Al': 1.0, 'Nb': 2.9699999999999998, 'Zr': 0.03}",17.4,17.4,0.0,1,Nb2.97 Zr0.03 Al1
577,[15800],Nb2.973Zr0.027Al1,Nb2.973Zr0.027Al1,"{'Al': 1.0, 'Nb': 2.973, 'Zr': 0.027}",16.6,16.6,0.0,1,Nb2.973 Zr0.027 Al1
578,[15806],Nb2.976Ti0.024Al1,Nb2.976Ti0.024Al1,"{'Al': 1.0, 'Nb': 2.976, 'Ti': 0.024}",17.7,17.7,0.0,1,Nb2.976 Ti0.024 Al1
579,[15799],Nb2.9925Zr0.0075Al1,Nb2.9925Zr0.0075Al1,"{'Al': 1.0, 'Nb': 2.9925, 'Zr': 0.007500000000000001}",17.6,17.6,0.0,1,Nb2.9925 Zr0.0075 Al1
580,"[12859, 12860, 12861, 12862, 12878, 12879, 15765, 15766, 15768, 15787, 15788, 15789, 15793, 15794, 15858, 15862, 16085, 16092, 16094, 18563, 19176, 19676, 19699]",Al1Nb3,Al1Nb3,"{'Al': 1.0, 'Nb': 3.0}",18.8,17.0882608696,3.469391191,23,Al1 Nb3
581,[26179],Nb5Sn2Al1,Nb5Sn2Al1,"{'Al': 1.0, 'Nb': 5.0, 'Sn': 2.0}",2.0,2.0,0.0,1,Nb5 Sn2 Al1
582,[20351],Ni2Zr1Al1,Ni2Zr1Al1,"{'Al': 1.0, 'Ni': 2.0, 'Zr': 1.0}",1.38,1.38,0.0,1,Ni2 Zr1 Al1
583,[12882],Al1Os1,Al1Os1,"{'Al': 1.0, 'Os': 1.0}",0.39,0.39,0.0,1,Al1 Os1
584,[14881],Al1Pb1,Al1Pb1,"{'Al': 1.0, 'Pb': 1.0}",1.2,1.2,0.0,1,Al1 Pb1
585,"[20296, 20964, 22891]",Pd2Zr1Al1,Pd2Zr1Al1,"{'Al': 1.0, 'Pd': 2.0, 'Zr': 1.0}",3.4,3.2666666667,0.0942809042,3,Pd2 Zr1 Al1
586,[17560],Y1Rh1Al1,Y1Rh1Al1,"{'Al': 1.0, 'Rh': 1.0, 'Y': 1.0}",0.9,0.9,0.0,1,Y1 Rh1 Al1
587,[12599],Al1Sb1,Al1Sb1,"{'Al': 1.0, 'Sb': 1.0}",2.8,2.8,0.0,1,Al1 Sb1
588,"[17024, 17031, 17262, 21231]",Sr1Al1Si1,Sr1Al1Si1,"{'Al': 1.0, 'Si': 1.0, 'Sr': 1.0}",5.1,4.75,0.35000000000000003,4,Sr1 Al1 Si1
589,[12888],Al1Ta3,Al1Ta3,"{'Al': 1.0, 'Ta': 3.0}",1.5899999999999999,1.5899999999999999,0.0,1,Al1 Ta3
590,"[12894, 12896]",Al1V3,Al1V3,"{'Al': 1.0, 'V': 3.0}",10.3,10.3,0.0,2,Al1 V3
591,[12909],Al1Zr3,Al1Zr3,"{'Al': 1.0, 'Zr': 3.0}",0.73,0.73,0.0,1,Al1 Zr3
592,[17036],Ca1Al1.1Si0.9,Ca1Al1.1Si0.9,"{'Al': 1.1, 'Ca': 1.0, 'Si': 0.9}",6.63,6.63,0.0,1,Ca1 Al1.1 Si0.9
593,[17035],Ca1Al1.2Si0.8,Ca1Al1.2Si0.8,"{'Al': 1.2, 'Ca': 1.0, 'Si': 0.8}",5.21,5.21,0.0,1,Ca1 Al1.2 Si0.8
594,[17034],Ca1Al1.25Si0.75,Ca1Al1.25Si0.75,"{'Al': 1.25, 'Ca': 1.0, 'Si': 0.75}",4.4,4.4,0.0,1,Ca1 Al1.25 Si0.75
595,[17033],Ca1Al1.3Si0.7,Ca1Al1.3Si0.7,"{'Al': 1.3, 'Ca': 1.0, 'Si': 0.7000000000000001}",4.5,4.5,0.0,1,Ca1 Al1.3 Si0.7
596,[22045],Fe2As2Ca6Al1.32Ti2.68O12,Fe2As2Ca6Al1.32Ti2.68O12,"{'Al': 1.32, 'As': 2.0, 'Ca': 6.0, 'Fe': 2.0, 'O': 12.0, 'Ti': 2.68}",36.0,36.0,0.0,1,Fe2 As2 Ca6 Al1.32 Ti2.68 O12
597,[22043],Fe2As2Ca4Al1.34Ti0.66O6,Fe2As2Ca4Al1.34Ti0.66O6,"{'Al': 1.34, 'As': 2.0, 'Ca': 4.0, 'Fe': 2.0, 'O': 6.0, 'Ti': 0.66}",12.5,12.5,0.0,1,Fe2 As2 Ca4 Al1.34 Ti0.66 O6
598,[17032],Ca1Al1.4Si0.6,Ca1Al1.4Si0.6,"{'Al': 1.4, 'Ca': 1.0, 'Si': 0.6000000000000001}",4.6,4.6,0.0,1,Ca1 Al1.4 Si0.6
599,[22044],Fe2As2Ca5Al1.5Ti1.5O9,Fe2As2Ca5Al1.5Ti1.5O9,"{'Al': 1.5, 'As': 2.0, 'Ca': 5.0, 'Fe': 2.0, 'O': 9.0, 'Ti': 1.5}",15.0,15.0,0.0,1,Fe2 As2 Ca5 Al1.5 Ti1.5 O9
600,[14859],Nb80.7Sn1.9Al1.9Ge15.5,Nb80.7Sn1.9Al1.9Ge15.5,"{'Al': 1.9, 'Ge': 15.5, 'Nb': 80.7, 'Sn': 1.9}",7.8,7.8,0.0,1,Nb80.7 Sn1.9 Al1.9 Ge15.5
601,[20340],La1Al1.995Si0.005,La1Al1.995Si0.005,"{'Al': 1.995, 'La': 1.0, 'Si': 0.005}",2.9,2.9,0.0,1,La1 Al1.995 Si0.005
602,[25617],Ca4Al2Fe2As0.1P1.9O6,Ca4Al2Fe2As0.1P1.9O6,"{'Al': 2.0, 'As': 0.1, 'Ca': 4.0, 'Fe': 2.0, 'O': 6.0, 'P': 1.9}",0.0,0.0,0.0,1,Ca4 Al2 Fe2 As0.1 P1.9 O6
603,[25616],Ca4Al2Fe2As0.5P1.5O6,Ca4Al2Fe2As0.5P1.5O6,"{'Al': 2.0, 'As': 0.5, 'Ca': 4.0, 'Fe': 2.0, 'O': 6.0, 'P': 1.5}",0.0,0.0,0.0,1,Ca4 Al2 Fe2 As0.5 P1.5 O6
604,[25615],Ca4Al2Fe2As1P1O6,Ca4Al2Fe2As1P1O6,"{'Al': 2.0, 'As': 1.0, 'Ca': 4.0, 'Fe': 2.0, 'O': 6.0, 'P': 1.0}",0.0,0.0,0.0,1,Ca4 Al2 Fe2 As1 P1 O6
605,[25614],Ca4Al2Fe2As1.2P0.8O6,Ca4Al2Fe2As1.2P0.8O6,"{'Al': 2.0, 'As': 1.2, 'Ca': 4.0, 'Fe': 2.0, 'O': 6.0, 'P': 0.8}",0.0,0.0,0.0,1,Ca4 Al2 Fe2 As1.2 P0.8 O6
606,[25613],Ca4Al2Fe2As1.6P0.4O6,Ca4Al2Fe2As1.6P0.4O6,"{'Al': 2.0, 'As': 1.6, 'Ca': 4.0, 'Fe': 2.0, 'O': 6.0, 'P': 0.4}",22.5,22.5,0.0,1,Ca4 Al2 Fe2 As1.6 P0.4 O6
607,[23049],Ca3Al2Fe2As2O5,Ca3Al2Fe2As2O5,"{'Al': 2.0, 'As': 2.0, 'Ca': 3.0, 'Fe': 2.0, 'O': 5.0}",30.2,30.2,0.0,1,Ca3 Al2 Fe2 As2 O5
608,[22410],Ca4Al2Fe2As2O5.65,Ca4Al2Fe2As2O5.65,"{'Al': 2.0, 'As': 2.0, 'Ca': 4.0, 'Fe': 2.0, 'O': 5.65}",26.8,26.8,0.0,1,Ca4 Al2 Fe2 As2 O5.65
609,[22409],Ca4Al2Fe2As2O5.785,Ca4Al2Fe2As2O5.785,"{'Al': 2.0, 'As': 2.0, 'Ca': 4.0, 'Fe': 2.0, 'O': 5.785}",27.0,27.0,0.0,1,Ca4 Al2 Fe2 As2 O5.785