,sc_id,supercon_formula,cleaned_formula,material_dict,highest_Tc,average_Tc,std_Tc,entry_count,composition
4078,[21509],Tl0.25Li0.25Ba2Ca1Be1Cu3.45Co0.05O10-z,Tl0.25Li0.25Ba2Ca1Be1Cu3.45Co0.05O10,"{'Ba': 2.0, 'Be': 1.0, 'Ca': 1.0, 'Co': 0.05, 'Cu': 3.45, 'Li': 0.25, 'O': 10.0, 'Tl': 0.25}",105.0,105.0,0.0,1,Tl0.25 Li0.25 Ba2 Ca1 Be1 Cu3.45 Co0.05 O10
4079,[21512],Tl0.5Ba2Ca1Be1Cu3.45Co0.05O10-z,Tl0.5Ba2Ca1Be1Cu3.45Co0.05O10,"{'Ba': 2.0, 'Be': 1.0, 'Ca': 1.0, 'Co': 0.05, 'Cu': 3.45, 'O': 10.0, 'Tl': 0.5}",90.0,90.0,0.0,1,Tl0.5 Ba2 Ca1 Be1 Cu3.45 Co0.05 O10
4080,[20796],Tl0.5Ba2Ca1Be1Cu2Ni1.5O10-z,Tl0.5Ba2Ca1Be1Cu2Ni1.5O10,"{'Ba': 2.0, 'Be': 1.0, 'Ca': 1.0, 'Cu': 2.0, 'Ni': 1.5, 'O': 10.0, 'Tl': 0.5}",104.0,104.0,0.0,1,Tl0.5 Ba2 Ca1 Be1 Cu2 Ni1.5 O10
4081,[20797],Tl0.5Ba2Ca0.5Be1.5Cu2Ni1.5O10-z,Tl0.5Ba2Ca0.5Be1.5Cu2Ni1.5O10,"{'Ba': 2.0, 'Be': 1.5, 'Ca': 0.5, 'Cu': 2.0, 'Ni': 1.5, 'O': 10.0, 'Tl': 0.5}",107.0,107.0,0.0,1,Tl0.5 Ba2 Ca0.5 Be1.5 Cu2 Ni1.5 O10
4082,[11670],Tl0.5Ba2Ca1.5Be1.5Cu4.5O9.887,Tl0.5Ba2Ca1.5Be1.5Cu4.5O9.887,"{'Ba': 2.0, 'Be': 1.5, 'Ca': 1.5, 'Cu': 4.5, 'O': 9.887, 'Tl': 0.5}",115.0,115.0,0.0,1,Tl0.5 Ba2 Ca1.5 Be1.5 Cu4.5 O9.887
4083,[11669],Tl0.5Ba2Ca0.3Be1.7Cu3.5O7.685,Tl0.5Ba2Ca0.3Be1.7Cu3.5O7.685,"{'Ba': 2.0, 'Be': 1.7000000000000002, 'Ca': 0.30000000000000004, 'Cu': 3.5, 'O': 7.6850000000000005, 'Tl': 0.5}",115.0,115.0,0.0,1,Tl0.5 Ba2 Ca0.3 Be1.7 Cu3.5 O7.685
4084,[11671],Tl0.5Ba2Ca1Be2Cu4.5O9.948,Tl0.5Ba2Ca1Be2Cu4.5O9.948,"{'Ba': 2.0, 'Be': 2.0, 'Ca': 1.0, 'Cu': 4.5, 'O': 9.948, 'Tl': 0.5}",110.0,110.0,0.0,1,Tl0.5 Ba2 Ca1 Be2 Cu4.5 O9.948
4085,[4128],Hg0.8Bi0.2Ba2Ca2Cu3O8.2,Hg0.8Bi0.2Ba2Ca2Cu3O8.2,"{'Ba': 2.0, 'Bi': 0.2, 'Ca': 2.0, 'Cu': 3.0, 'Hg': 0.8, 'O': 8.2}",130.0,130.0,0.0,1,Hg0.8 Bi0.2 Ba2 Ca2 Cu3 O8.2
4086,[5871],Tl0.8Bi0.2Ba2Ca2Cu3O9,Tl0.8Bi0.2Ba2Ca2Cu3O9,"{'Ba': 2.0, 'Bi': 0.2, 'Ca': 2.0, 'Cu': 3.0, 'O': 9.0, 'Tl': 0.8}",116.0,116.0,0.0,1,Tl0.8 Bi0.2 Ba2 Ca2 Cu3 O9
4087,[4127],Hg0.8Bi0.2Ba2Cu1O4.2,Hg0.8Bi0.2Ba2Cu1O4.2,"{'Ba': 2.0, 'Bi': 0.2, 'Cu': 1.0, 'Hg': 0.8, 'O': 4.2}",85.0,85.0,0.0,1,Hg0.8 Bi0.2 Ba2 Cu1 O4.2
4088,[23748],Ba2Bi1.75Sb1.25,Ba2Bi1.75Sb1.25,"{'Ba': 2.0, 'Bi': 1.75, 'Sb': 1.25}",3.51,3.51,0.0,1,Ba2 Bi1.75 Sb1.25
4089,[23749],Ba2Bi2Sb1,Ba2Bi2Sb1,"{'Ba': 2.0, 'Bi': 2.0, 'Sb': 1.0}",3.92,3.92,0.0,1,Ba2 Bi2 Sb1
4090,[23750],Ba2Bi2.25Sb0.75,Ba2Bi2.25Sb0.75,"{'Ba': 2.0, 'Bi': 2.25, 'Sb': 0.75}",4.06,4.06,0.0,1,Ba2 Bi2.25 Sb0.75
4091,[23751],Ba2Bi2.5Sb0.5,Ba2Bi2.5Sb0.5,"{'Ba': 2.0, 'Bi': 2.5, 'Sb': 0.5}",4.25,4.25,0.0,1,Ba2 Bi2.5 Sb0.5
4092,[23752],Ba2Bi2.75Sb0.25,Ba2Bi2.75Sb0.25,"{'Ba': 2.0, 'Bi': 2.75, 'Sb': 0.25}",4.46,4.46,0.0,1,Ba2 Bi2.75 Sb0.25
4093,"[23471, 23753]",Ba2Bi3,Ba2Bi3,"{'Ba': 2.0, 'Bi': 3.0}",4.48,4.44,0.04,2,Ba2 Bi3
4094,[3206],Y1Ba2Cu3Br0.9O6.2,Y1Ba2Cu3Br0.9O6.2,"{'Ba': 2.0, 'Br': 0.9, 'Cu': 3.0, 'O': 6.2, 'Y': 1.0}",92.0,92.0,0.0,1,Y1 Ba2 Cu3 Br0.9 O6.2
4095,[19940],C0.3Ba2Ca4Cu5.7O10.34,C0.3Ba2Ca4Cu5.7O10.34,"{'Ba': 2.0, 'C': 0.30000000000000004, 'Ca': 4.0, 'Cu': 5.7, 'O': 10.34}",113.5,113.5,0.0,1,C0.3 Ba2 Ca4 Cu5.7 O10.34
4096,[19939],C0.3Ba2Ca4Cu5.7O10.45,C0.3Ba2Ca4Cu5.7O10.45,"{'Ba': 2.0, 'C': 0.30000000000000004, 'Ca': 4.0, 'Cu': 5.7, 'O': 10.45}",114.3,114.3,0.0,1,C0.3 Ba2 Ca4 Cu5.7 O10.45
4097,[19938],C0.3Ba2Ca4Cu5.7O10.57,C0.3Ba2Ca4Cu5.7O10.57,"{'Ba': 2.0, 'C': 0.30000000000000004, 'Ca': 4.0, 'Cu': 5.7, 'O': 10.57}",115.1,115.1,0.0,1,C0.3 Ba2 Ca4 Cu5.7 O10.57
4098,[19937],C0.3Ba2Ca4Cu5.7O10.66,C0.3Ba2Ca4Cu5.7O10.66,"{'Ba': 2.0, 'C': 0.30000000000000004, 'Ca': 4.0, 'Cu': 5.7, 'O': 10.66}",115.7,115.7,0.0,1,C0.3 Ba2 Ca4 Cu5.7 O10.66
4099,[19936],C0.3Ba2Ca4Cu5.7O10.69,C0.3Ba2Ca4Cu5.7O10.69,"{'Ba': 2.0, 'C': 0.30000000000000004, 'Ca': 4.0, 'Cu': 5.7, 'O': 10.69}",116.3,116.3,0.0,1,C0.3 Ba2 Ca4 Cu5.7 O10.69
4100,[19935],C0.3Ba2Ca4Cu5.7O10.77,C0.3Ba2Ca4Cu5.7O10.77,"{'Ba': 2.0, 'C': 0.30000000000000004, 'Ca': 4.0, 'Cu': 5.7, 'O': 10.77}",116.7,116.7,0.0,1,C0.3 Ba2 Ca4 Cu5.7 O10.77
4101,[19934],C0.3Ba2Ca4Cu5.7O11.18,C0.3Ba2Ca4Cu5.7O11.18,"{'Ba': 2.0, 'C': 0.30000000000000004, 'Ca': 4.0, 'Cu': 5.7, 'O': 11.18}",117.5,117.5,0.0,1,C0.3 Ba2 Ca4 Cu5.7 O11.18
4102,[12219],C0.3Ba2Ca4Cu5.7O12.8,C0.3Ba2Ca4Cu5.7O12.8,"{'Ba': 2.0, 'C': 0.30000000000000004, 'Ca': 4.0, 'Cu': 5.7, 'O': 12.8}",99.0,99.0,0.0,1,C0.3 Ba2 Ca4 Cu5.7 O12.8
4103,[12220],C0.3Ba2Ca4Cu5.7O12.965,C0.3Ba2Ca4Cu5.7O12.965,"{'Ba': 2.0, 'C': 0.30000000000000004, 'Ca': 4.0, 'Cu': 5.7, 'O': 12.965}",93.3,93.3,0.0,1,C0.3 Ba2 Ca4 Cu5.7 O12.965
4104,[7914],Cu0.68C0.32Ba2Ca3Cu4O11+d,Cu0.68C0.32Ba2Ca3Cu4O11,"{'Ba': 2.0, 'C': 0.32, 'Ca': 3.0, 'Cu': 4.68, 'O': 11.0}",117.0,117.0,0.0,1,Cu4.68 C0.32 Ba2 Ca3 O11
4105,[9609],Cu4.6C0.4Ba2Ca3O12+Z,Cu4.6C0.4Ba2Ca3O12,"{'Ba': 2.0, 'C': 0.4, 'Ca': 3.0, 'Cu': 4.6, 'O': 12.0}",117.0,117.0,0.0,1,Cu4.6 C0.4 Ba2 Ca3 O12
4106,"[3596, 6501]",C0.5Ba2Ca2Cu3.5O9+z,C0.5Ba2Ca2Cu3.5O9,"{'Ba': 2.0, 'C': 0.5, 'Ca': 2.0, 'Cu': 3.5, 'O': 9.0}",67.0,67.0,0.0,2,C0.5 Ba2 Ca2 Cu3.5 O9
4107,"[3597, 6502]",C0.5Ba2Ca3Cu4.5O11+z,C0.5Ba2Ca3Cu4.5O11,"{'Ba': 2.0, 'C': 0.5, 'Ca': 3.0, 'Cu': 4.5, 'O': 11.0}",117.0,117.0,0.0,2,C0.5 Ba2 Ca3 Cu4.5 O11
4108,[9408],Hg0.5C0.5Ba2Cu1O4+z,Hg0.5C0.5Ba2Cu1O4,"{'Ba': 2.0, 'C': 0.5, 'Cu': 1.0, 'Hg': 0.5, 'O': 4.0}",63.0,63.0,0.0,1,Hg0.5 C0.5 Ba2 Cu1 O4
4109,"[6266, 6267]",Tl1Sr2Ba2Cu2C0.8N0.2O10,Tl1Sr2Ba2Cu2C0.8N0.2O10,"{'Ba': 2.0, 'C': 0.8, 'Cu': 2.0, 'N': 0.2, 'O': 10.0, 'Sr': 2.0, 'Tl': 1.0}",61.0,55.0,6.0,2,Tl1 Sr2 Ba2 Cu2 C0.8 N0.2 O10
4110,"[6264, 6265]",Tl1Sr2Ba2Cu2C0.9N0.1O10,Tl1Sr2Ba2Cu2C0.9N0.1O10,"{'Ba': 2.0, 'C': 0.9, 'Cu': 2.0, 'N': 0.1, 'O': 10.0, 'Sr': 2.0, 'Tl': 1.0}",61.0,52.0,9.0,2,Tl1 Sr2 Ba2 Cu2 C0.9 N0.1 O10
4111,"[3400, 3401]",Hg1Ba2Sr2Cu2C1O9+z,Hg1Ba2Sr2Cu2C1O9,"{'Ba': 2.0, 'C': 1.0, 'Cu': 2.0, 'Hg': 1.0, 'O': 9.0, 'Sr': 2.0}",66.0,62.0,4.0,2,Hg1 Ba2 Sr2 Cu2 C1 O9
4112,"[4225, 20051]",Tl1Ba2Sr2Cu2C1O10,Tl1Ba2Sr2Cu2C1O10,"{'Ba': 2.0, 'C': 1.0, 'Cu': 2.0, 'O': 10.0, 'Sr': 2.0, 'Tl': 1.0}",68.2,64.6,3.6,2,Tl1 Ba2 Sr2 Cu2 C1 O10
4113,[6136],Tl1Sr2Ba2Cu2C2.4N0.6O7,Tl1Sr2Ba2Cu2C2.4N0.6O7,"{'Ba': 2.0, 'C': 2.4, 'Cu': 2.0, 'N': 0.6000000000000001, 'O': 7.0, 'Sr': 2.0, 'Tl': 1.0}",49.0,49.0,0.0,1,Tl1 Sr2 Ba2 Cu2 C2.4 N0.6 O7
4114,[6135],Tl1Sr2Ba2Cu2C2.7N0.3O7,Tl1Sr2Ba2Cu2C2.7N0.3O7,"{'Ba': 2.0, 'C': 2.7, 'Cu': 2.0, 'N': 0.30000000000000004, 'O': 7.0, 'Sr': 2.0, 'Tl': 1.0}",49.0,49.0,0.0,1,Tl1 Sr2 Ba2 Cu2 C2.7 N0.3 O7
4115,[5332],Er0.99Ca0.01Ba2Cu4O8,Er0.99Ca0.01Ba2Cu4O8,"{'Ba': 2.0, 'Ca': 0.01, 'Cu': 4.0, 'Er': 0.99, 'O': 8.0}",79.3,79.3,0.0,1,Er0.99 Ca0.01 Ba2 Cu4 O8
4116,[5336],Ho0.99Ca0.01Ba2Cu4O8,Ho0.99Ca0.01Ba2Cu4O8,"{'Ba': 2.0, 'Ca': 0.01, 'Cu': 4.0, 'Ho': 0.99, 'O': 8.0}",76.8,76.8,0.0,1,Ho0.99 Ca0.01 Ba2 Cu4 O8
4117,[5327],Tm0.99Ca0.01Ba2Cu4O8,Tm0.99Ca0.01Ba2Cu4O8,"{'Ba': 2.0, 'Ca': 0.01, 'Cu': 4.0, 'O': 8.0, 'Tm': 0.99}",79.2,79.2,0.0,1,Tm0.99 Ca0.01 Ba2 Cu4 O8
4118,"[5321, 5339]",Y0.99Ca0.01Ba2Cu4O8,Y0.99Ca0.01Ba2Cu4O8,"{'Ba': 2.0, 'Ca': 0.01, 'Cu': 4.0, 'O': 8.0, 'Y': 0.99}",79.4,78.7,0.7000000000000001,2,Y0.99 Ca0.01 Ba2 Cu4 O8
4119,[3538],Y0.985Ca0.015Ba2Cu3O6.98,Y0.985Ca0.015Ba2Cu3O6.98,"{'Ba': 2.0, 'Ca': 0.015, 'Cu': 3.0, 'O': 6.98, 'Y': 0.985}",89.9,89.9,0.0,1,Y0.985 Ca0.015 Ba2 Cu3 O6.98
4120,[6398],Y0.984Ca0.016Ba2Cu3O6.986,Y0.984Ca0.016Ba2Cu3O6.986,"{'Ba': 2.0, 'Ca': 0.016, 'Cu': 3.0, 'O': 6.986, 'Y': 0.984}",89.5,89.5,0.0,1,Y0.984 Ca0.016 Ba2 Cu3 O6.986
4121,[10075],Gd0.98Ca0.02Ba2Cu3O7-z,Gd0.98Ca0.02Ba2Cu3O7,"{'Ba': 2.0, 'Ca': 0.02, 'Cu': 3.0, 'Gd': 0.98, 'O': 7.0}",85.4,85.4,0.0,1,Gd0.98 Ca0.02 Ba2 Cu3 O7
4122,[1431],Y0.83Ca0.02Pr0.15Ba2Cu3O6.95,Y0.83Ca0.02Pr0.15Ba2Cu3O6.95,"{'Ba': 2.0, 'Ca': 0.02, 'Cu': 3.0, 'O': 6.95, 'Pr': 0.15, 'Y': 0.8300000000000001}",83.0,83.0,0.0,1,Y0.83 Ca0.02 Pr0.15 Ba2 Cu3 O6.95
4123,[10659],Y0.93Pr0.05Ca0.02Ba2Cu3O7-z,Y0.93Pr0.05Ca0.02Ba2Cu3O7,"{'Ba': 2.0, 'Ca': 0.02, 'Cu': 3.0, 'O': 7.0, 'Pr': 0.05, 'Y': 0.93}",89.4,89.4,0.0,1,Y0.93 Pr0.05 Ca0.02 Ba2 Cu3 O7
4124,[10663],Y0.88Pr0.1Ca0.02Ba2Cu3O7-z,Y0.88Pr0.1Ca0.02Ba2Cu3O7,"{'Ba': 2.0, 'Ca': 0.02, 'Cu': 3.0, 'O': 7.0, 'Pr': 0.1, 'Y': 0.88}",87.0,87.0,0.0,1,Y0.88 Pr0.1 Ca0.02 Ba2 Cu3 O7
4125,"[5186, 10655]",Y0.98Ca0.02Ba2Cu3O7-z,Y0.98Ca0.02Ba2Cu3O7,"{'Ba': 2.0, 'Ca': 0.02, 'Cu': 3.0, 'O': 7.0, 'Y': 0.98}",90.5,88.45,2.05,2,Y0.98 Ca0.02 Ba2 Cu3 O7
4126,[4336],Y0.98Ca0.02Ba2Cu4O8,Y0.98Ca0.02Ba2Cu4O8,"{'Ba': 2.0, 'Ca': 0.02, 'Cu': 4.0, 'O': 8.0, 'Y': 0.98}",87.0,87.0,0.0,1,Y0.98 Ca0.02 Ba2 Cu4 O8
4127,[5131],Nd0.95Ca0.025Pr0.025Ba2Cu3O6.95,Nd0.95Ca0.025Pr0.025Ba2Cu3O6.95,"{'Ba': 2.0, 'Ca': 0.025, 'Cu': 3.0, 'Nd': 0.9500000000000001, 'O': 6.95, 'Pr': 0.025}",86.1,86.1,0.0,1,Nd0.95 Ca0.025 Pr0.025 Ba2 Cu3 O6.95
4128,[10455],Nd0.95Ca0.025Pr0.025Ba2Cu3O7-z,Nd0.95Ca0.025Pr0.025Ba2Cu3O7,"{'Ba': 2.0, 'Ca': 0.025, 'Cu': 3.0, 'Nd': 0.9500000000000001, 'O': 7.0, 'Pr': 0.025}",86.1,86.1,0.0,1,Nd0.95 Ca0.025 Pr0.025 Ba2 Cu3 O7
4129,[6216],Y0.975Ca0.025Ba2Cu3O6.72,Y0.975Ca0.025Ba2Cu3O6.72,"{'Ba': 2.0, 'Ca': 0.025, 'Cu': 3.0, 'O': 6.72, 'Y': 0.975}",70.8,70.8,0.0,1,Y0.975 Ca0.025 Ba2 Cu3 O6.72
4130,[6209],Y0.975Ca0.025Ba2Cu3O6.95,Y0.975Ca0.025Ba2Cu3O6.95,"{'Ba': 2.0, 'Ca': 0.025, 'Cu': 3.0, 'O': 6.95, 'Y': 0.975}",91.5,91.5,0.0,1,Y0.975 Ca0.025 Ba2 Cu3 O6.95
4131,"[3208, 7197]",Y0.975Ca0.025Ba2Cu4O8,Y0.975Ca0.025Ba2Cu4O8,"{'Ba': 2.0, 'Ca': 0.025, 'Cu': 4.0, 'O': 8.0, 'Y': 0.975}",82.0,80.75,1.25,2,Y0.975 Ca0.025 Ba2 Cu4 O8
4132,[7318],Nd0.97Ca0.03Ba2Cu3O7-z,Nd0.97Ca0.03Ba2Cu3O7,"{'Ba': 2.0, 'Ca': 0.03, 'Cu': 3.0, 'Nd': 0.97, 'O': 7.0}",90.36,90.36,0.0,1,Nd0.97 Ca0.03 Ba2 Cu3 O7
4133,[9837],Y0.97Ca0.03Ba2Cu3O6,Y0.97Ca0.03Ba2Cu3O6,"{'Ba': 2.0, 'Ca': 0.03, 'Cu': 3.0, 'O': 6.0, 'Y': 0.97}",0.0,0.0,0.0,1,Y0.97 Ca0.03 Ba2 Cu3 O6
4134,[3539],Y0.97Ca0.03Ba2Cu3O6.97,Y0.97Ca0.03Ba2Cu3O6.97,"{'Ba': 2.0, 'Ca': 0.03, 'Cu': 3.0, 'O': 6.97, 'Y': 0.97}",86.7,86.7,0.0,1,Y0.97 Ca0.03 Ba2 Cu3 O6.97
4135,[5333],Er0.97Ca0.03Ba2Cu4O8,Er0.97Ca0.03Ba2Cu4O8,"{'Ba': 2.0, 'Ca': 0.03, 'Cu': 4.0, 'Er': 0.97, 'O': 8.0}",80.0,80.0,0.0,1,Er0.97 Ca0.03 Ba2 Cu4 O8
4136,[5337],Ho0.97Ca0.03Ba2Cu4O8,Ho0.97Ca0.03Ba2Cu4O8,"{'Ba': 2.0, 'Ca': 0.03, 'Cu': 4.0, 'Ho': 0.97, 'O': 8.0}",77.4,77.4,0.0,1,Ho0.97 Ca0.03 Ba2 Cu4 O8
4137,[5328],Tm0.97Ca0.03Ba2Cu4O8,Tm0.97Ca0.03Ba2Cu4O8,"{'Ba': 2.0, 'Ca': 0.03, 'Cu': 4.0, 'O': 8.0, 'Tm': 0.97}",81.2,81.2,0.0,1,Tm0.97 Ca0.03 Ba2 Cu4 O8
4138,[5322],Y0.97Ca0.03Ba2Cu4O8,Y0.97Ca0.03Ba2Cu4O8,"{'Ba': 2.0, 'Ca': 0.03, 'Cu': 4.0, 'O': 8.0, 'Y': 0.97}",81.9,81.9,0.0,1,Y0.97 Ca0.03 Ba2 Cu4 O8
4139,[5078],Er0.94Ca0.04Ba2Cu2.82Co0.18O6.76,Er0.94Ca0.04Ba2Cu2.82Co0.18O6.76,"{'Ba': 2.0, 'Ca': 0.04, 'Co': 0.18, 'Cu': 2.8200000000000003, 'Er': 0.9400000000000001, 'O': 6.76}",64.0,64.0,0.0,1,Er0.94 Ca0.04 Ba2 Cu2.82 Co0.18 O6.76
4140,[10660],Y0.91Pr0.05Ca0.04Ba2Cu3O7-z,Y0.91Pr0.05Ca0.04Ba2Cu3O7,"{'Ba': 2.0, 'Ca': 0.04, 'Cu': 3.0, 'O': 7.0, 'Pr': 0.05, 'Y': 0.91}",87.3,87.3,0.0,1,Y0.91 Pr0.05 Ca0.04 Ba2 Cu3 O7
4141,[10664],Y0.86Pr0.1Ca0.04Ba2Cu3O7-z,Y0.86Pr0.1Ca0.04Ba2Cu3O7,"{'Ba': 2.0, 'Ca': 0.04, 'Cu': 3.0, 'O': 7.0, 'Pr': 0.1, 'Y': 0.86}",85.5,85.5,0.0,1,Y0.86 Pr0.1 Ca0.04 Ba2 Cu3 O7
4142,[8123],Lu0.9Ce0.05Ca0.05Ba2Cu3O7-d,Lu0.9Ce0.05Ca0.05Ba2Cu3O7,"{'Ba': 2.0, 'Ca': 0.05, 'Ce': 0.05, 'Cu': 3.0, 'Lu': 0.9, 'O': 7.0}",81.0,81.0,0.0,1,Lu0.9 Ce0.05 Ca0.05 Ba2 Cu3 O7
4143,[8125],Lu0.8Ce0.15Ca0.05Ba2Cu3O7-d,Lu0.8Ce0.15Ca0.05Ba2Cu3O7,"{'Ba': 2.0, 'Ca': 0.05, 'Ce': 0.15, 'Cu': 3.0, 'Lu': 0.8, 'O': 7.0}",63.0,63.0,0.0,1,Lu0.8 Ce0.15 Ca0.05 Ba2 Cu3 O7
4144,[6579],Y0.95Ca0.05Ba2Cu2.95Co0.05O6.75,Y0.95Ca0.05Ba2Cu2.95Co0.05O6.75,"{'Ba': 2.0, 'Ca': 0.05, 'Co': 0.05, 'Cu': 2.95, 'O': 6.75, 'Y': 0.9500000000000001}",64.0,64.0,0.0,1,Y0.95 Ca0.05 Ba2 Cu2.95 Co0.05 O6.75
4145,[6572],Y0.95Ca0.05Ba2Cu2.95Co0.05O6.84,Y0.95Ca0.05Ba2Cu2.95Co0.05O6.84,"{'Ba': 2.0, 'Ca': 0.05, 'Co': 0.05, 'Cu': 2.95, 'O': 6.84, 'Y': 0.9500000000000001}",72.5,72.5,0.0,1,Y0.95 Ca0.05 Ba2 Cu2.95 Co0.05 O6.84
4146,[6565],Y0.95Ca0.05Ba2Cu2.95Co0.05O6.96,Y0.95Ca0.05Ba2Cu2.95Co0.05O6.96,"{'Ba': 2.0, 'Ca': 0.05, 'Co': 0.05, 'Cu': 2.95, 'O': 6.96, 'Y': 0.9500000000000001}",88.0,88.0,0.0,1,Y0.95 Ca0.05 Ba2 Cu2.95 Co0.05 O6.96
4147,[3162],Y0.95Ca0.05Ba2Cu2.85Co0.15O6.82,Y0.95Ca0.05Ba2Cu2.85Co0.15O6.82,"{'Ba': 2.0, 'Ca': 0.05, 'Co': 0.15, 'Cu': 2.85, 'O': 6.82, 'Y': 0.9500000000000001}",83.0,83.0,0.0,1,Y0.95 Ca0.05 Ba2 Cu2.85 Co0.15 O6.82
4148,[9319],Y0.95Ca0.05Ba2Cu2.75Co0.25O7.06,Y0.95Ca0.05Ba2Cu2.75Co0.25O7.06,"{'Ba': 2.0, 'Ca': 0.05, 'Co': 0.25, 'Cu': 2.75, 'O': 7.06, 'Y': 0.9500000000000001}",75.1,75.1,0.0,1,Y0.95 Ca0.05 Ba2 Cu2.75 Co0.25 O7.06
4149,[22362],Y0.95Ca0.05Ba2Cu2.8Zn0.2O6.74,Y0.95Ca0.05Ba2Cu2.8Zn0.2O6.74,"{'Ba': 2.0, 'Ca': 0.05, 'Cu': 2.8, 'O': 6.74, 'Y': 0.9500000000000001, 'Zn': 0.2}",3.5,3.5,0.0,1,Y0.95 Ca0.05 Ba2 Cu2.8 Zn0.2 O6.74
4150,[4063],Y0.95Ca0.05Ba2Cu2.95Ni0.05O6.83,Y0.95Ca0.05Ba2Cu2.95Ni0.05O6.83,"{'Ba': 2.0, 'Ca': 0.05, 'Cu': 2.95, 'Ni': 0.05, 'O': 6.83, 'Y': 0.9500000000000001}",82.0,82.0,0.0,1,Y0.95 Ca0.05 Ba2 Cu2.95 Ni0.05 O6.83
4151,[4072],Y0.95Ca0.05Ba2Cu2.95Zn0.05O6.89,Y0.95Ca0.05Ba2Cu2.95Zn0.05O6.89,"{'Ba': 2.0, 'Ca': 0.05, 'Cu': 2.95, 'O': 6.89, 'Y': 0.9500000000000001, 'Zn': 0.05}",65.0,65.0,0.0,1,Y0.95 Ca0.05 Ba2 Cu2.95 Zn0.05 O6.89
4152,[9049],Er0.75Pr0.2Ca0.05Ba2Cu3O7-Z,Er0.75Pr0.2Ca0.05Ba2Cu3O7,"{'Ba': 2.0, 'Ca': 0.05, 'Cu': 3.0, 'Er': 0.75, 'O': 7.0, 'Pr': 0.2}",80.0,80.0,0.0,1,Er0.75 Pr0.2 Ca0.05 Ba2 Cu3 O7
4153,[4865],Er0.8Ca0.05Hf0.15Ba2Cu3O6.706,Er0.8Ca0.05Hf0.15Ba2Cu3O6.706,"{'Ba': 2.0, 'Ca': 0.05, 'Cu': 3.0, 'Er': 0.8, 'Hf': 0.15, 'O': 6.7059999999999995}",64.8,64.8,0.0,1,Er0.8 Ca0.05 Hf0.15 Ba2 Cu3 O6.706
4154,[9054],Er0.85Pr0.1Ca0.05Ba2Cu3O7-Z,Er0.85Pr0.1Ca0.05Ba2Cu3O7,"{'Ba': 2.0, 'Ca': 0.05, 'Cu': 3.0, 'Er': 0.85, 'O': 7.0, 'Pr': 0.1}",82.0,82.0,0.0,1,Er0.85 Pr0.1 Ca0.05 Ba2 Cu3 O7
4155,[3854],Er0.95Ca0.05Ba2Cu3O6.935,Er0.95Ca0.05Ba2Cu3O6.935,"{'Ba': 2.0, 'Ca': 0.05, 'Cu': 3.0, 'Er': 0.9500000000000001, 'O': 6.9350000000000005}",86.0,86.0,0.0,1,Er0.95 Ca0.05 Ba2 Cu3 O6.935
4156,[7102],Gd0.8Ca0.05Hf0.15Ba2Cu3O6.86,Gd0.8Ca0.05Hf0.15Ba2Cu3O6.86,"{'Ba': 2.0, 'Ca': 0.05, 'Cu': 3.0, 'Gd': 0.8, 'Hf': 0.15, 'O': 6.86}",80.6,80.6,0.0,1,Gd0.8 Ca0.05 Hf0.15 Ba2 Cu3 O6.86
4157,[6822],Gd0.8Ca0.05Mo0.15Ba2Cu3O6.651,Gd0.8Ca0.05Mo0.15Ba2Cu3O6.651,"{'Ba': 2.0, 'Ca': 0.05, 'Cu': 3.0, 'Gd': 0.8, 'Mo': 0.15, 'O': 6.651}",66.1,66.1,0.0,1,Gd0.8 Ca0.05 Mo0.15 Ba2 Cu3 O6.651
4158,[10087],Gd0.8Pr0.15Ca0.05Ba2Cu3O7-z,Gd0.8Pr0.15Ca0.05Ba2Cu3O7,"{'Ba': 2.0, 'Ca': 0.05, 'Cu': 3.0, 'Gd': 0.8, 'O': 7.0, 'Pr': 0.15}",64.3,64.3,0.0,1,Gd0.8 Pr0.15 Ca0.05 Ba2 Cu3 O7
4159,[10081],Gd0.85Pr0.1Ca0.05Ba2Cu3O7-z,Gd0.85Pr0.1Ca0.05Ba2Cu3O7,"{'Ba': 2.0, 'Ca': 0.05, 'Cu': 3.0, 'Gd': 0.85, 'O': 7.0, 'Pr': 0.1}",70.6,70.6,0.0,1,Gd0.85 Pr0.1 Ca0.05 Ba2 Cu3 O7
4160,[10076],Gd0.95Ca0.05Ba2Cu3O7-z,Gd0.95Ca0.05Ba2Cu3O7,"{'Ba': 2.0, 'Ca': 0.05, 'Cu': 3.0, 'Gd': 0.9500000000000001, 'O': 7.0}",81.9,81.9,0.0,1,Gd0.95 Ca0.05 Ba2 Cu3 O7
4161,[8130],Lu0.9Pr0.05Ca0.05Ba2Cu3O7-d,Lu0.9Pr0.05Ca0.05Ba2Cu3O7,"{'Ba': 2.0, 'Ca': 0.05, 'Cu': 3.0, 'Lu': 0.9, 'O': 7.0, 'Pr': 0.05}",82.0,82.0,0.0,1,Lu0.9 Pr0.05 Ca0.05 Ba2 Cu3 O7
4162,[5132],Nd0.9Ca0.05Pr0.05Ba2Cu3O6.95,Nd0.9Ca0.05Pr0.05Ba2Cu3O6.95,"{'Ba': 2.0, 'Ca': 0.05, 'Cu': 3.0, 'Nd': 0.9, 'O': 6.95, 'Pr': 0.05}",81.4,81.4,0.0,1,Nd0.9 Ca0.05 Pr0.05 Ba2 Cu3 O6.95
4163,[10456],Nd0.9Ca0.05Pr0.05Ba2Cu3O7-z,Nd0.9Ca0.05Pr0.05Ba2Cu3O7,"{'Ba': 2.0, 'Ca': 0.05, 'Cu': 3.0, 'Nd': 0.9, 'O': 7.0, 'Pr': 0.05}",81.4,81.4,0.0,1,Nd0.9 Ca0.05 Pr0.05 Ba2 Cu3 O7
4164,"[6217, 7697]",Y0.95Ca0.05Ba2Cu3O6.7,Y0.95Ca0.05Ba2Cu3O6.7,"{'Ba': 2.0, 'Ca': 0.05, 'Cu': 3.0, 'O': 6.7, 'Y': 0.9500000000000001}",72.0,71.0,1.0,2,Y0.95 Ca0.05 Ba2 Cu3 O6.7
4165,[4921],Y0.95Ca0.05Ba2Cu3O6.79,Y0.95Ca0.05Ba2Cu3O6.79,"{'Ba': 2.0, 'Ca': 0.05, 'Cu': 3.0, 'O': 6.79, 'Y': 0.9500000000000001}",88.0,88.0,0.0,1,Y0.95 Ca0.05 Ba2 Cu3 O6.79
4166,[4926],Y0.8Pr0.15Ca0.05Ba2Cu3O6.82,Y0.8Pr0.15Ca0.05Ba2Cu3O6.82,"{'Ba': 2.0, 'Ca': 0.05, 'Cu': 3.0, 'O': 6.82, 'Pr': 0.15, 'Y': 0.8}",80.0,80.0,0.0,1,Y0.8 Pr0.15 Ca0.05 Ba2 Cu3 O6.82
4167,[6210],Y0.95Ca0.05Ba2Cu3O6.94,Y0.95Ca0.05Ba2Cu3O6.94,"{'Ba': 2.0, 'Ca': 0.05, 'Cu': 3.0, 'O': 6.94, 'Y': 0.9500000000000001}",88.2,88.2,0.0,1,Y0.95 Ca0.05 Ba2 Cu3 O6.94
4168,[1424],Y0.85Ca0.05Pr0.1Ba2Cu3O6.95,Y0.85Ca0.05Pr0.1Ba2Cu3O6.95,"{'Ba': 2.0, 'Ca': 0.05, 'Cu': 3.0, 'O': 6.95, 'Pr': 0.1, 'Y': 0.85}",84.6,84.6,0.0,1,Y0.85 Ca0.05 Pr0.1 Ba2 Cu3 O6.95
4169,[1432],Y0.8Ca0.05Pr0.15Ba2Cu3O6.95,Y0.8Ca0.05Pr0.15Ba2Cu3O6.95,"{'Ba': 2.0, 'Ca': 0.05, 'Cu': 3.0, 'O': 6.95, 'Pr': 0.15, 'Y': 0.8}",82.7,82.7,0.0,1,Y0.8 Ca0.05 Pr0.15 Ba2 Cu3 O6.95
4170,[1436],Y0.75Ca0.05Pr0.2Ba2Cu3O6.95,Y0.75Ca0.05Pr0.2Ba2Cu3O6.95,"{'Ba': 2.0, 'Ca': 0.05, 'Cu': 3.0, 'O': 6.95, 'Pr': 0.2, 'Y': 0.75}",76.4,76.4,0.0,1,Y0.75 Ca0.05 Pr0.2 Ba2 Cu3 O6.95
4171,[10652],Y0.9Pr0.05Ca0.05Ba2Cu3O7-z,Y0.9Pr0.05Ca0.05Ba2Cu3O7,"{'Ba': 2.0, 'Ca': 0.05, 'Cu': 3.0, 'O': 7.0, 'Pr': 0.05, 'Y': 0.9}",86.2,86.2,0.0,1,Y0.9 Pr0.05 Ca0.05 Ba2 Cu3 O7
4172,"[2232, 8091]",Y0.75Pr0.2Ca0.05Ba2Cu3O7-Z,Y0.75Pr0.2Ca0.05Ba2Cu3O7,"{'Ba': 2.0, 'Ca': 0.05, 'Cu': 3.0, 'O': 7.0, 'Pr': 0.2, 'Y': 0.75}",73.6,66.9,6.7,2,Y0.75 Pr0.2 Ca0.05 Ba2 Cu3 O7
4173,"[5187, 10656]",Y0.95Ca0.05Ba2Cu3O7-z,Y0.95Ca0.05Ba2Cu3O7,"{'Ba': 2.0, 'Ca': 0.05, 'Cu': 3.0, 'O': 7.0, 'Y': 0.9500000000000001}",88.6,88.55,0.05,2,Y0.95 Ca0.05 Ba2 Cu3 O7
4174,[5334],Er0.95Ca0.05Ba2Cu4O8,Er0.95Ca0.05Ba2Cu4O8,"{'Ba': 2.0, 'Ca': 0.05, 'Cu': 4.0, 'Er': 0.9500000000000001, 'O': 8.0}",83.2,83.2,0.0,1,Er0.95 Ca0.05 Ba2 Cu4 O8
4175,[1120],Ho0.95Ca0.05Ba2Cu4O8,Ho0.95Ca0.05Ba2Cu4O8,"{'Ba': 2.0, 'Ca': 0.05, 'Cu': 4.0, 'Ho': 0.9500000000000001, 'O': 8.0}",81.0,81.0,0.0,1,Ho0.95 Ca0.05 Ba2 Cu4 O8
4176,[5329],Tm0.95Ca0.05Ba2Cu4O8,Tm0.95Ca0.05Ba2Cu4O8,"{'Ba': 2.0, 'Ca': 0.05, 'Cu': 4.0, 'O': 8.0, 'Tm': 0.9500000000000001}",84.8,84.8,0.0,1,Tm0.95 Ca0.05 Ba2 Cu4 O8
4177,"[1126, 3209, 5323, 7198, 9410]",Y0.95Ca0.05Ba2Cu4O8,Y0.95Ca0.05Ba2Cu4O8,"{'Ba': 2.0, 'Ca': 0.05, 'Cu': 4.0, 'O': 8.0, 'Y': 0.9500000000000001}",87.2,85.16,1.882126457,5,Y0.95 Ca0.05 Ba2 Cu4 O8
4178,[5032],Er0.94Ca0.06Ba2Cu2.82Co0.18O6.76,Er0.94Ca0.06Ba2Cu2.82Co0.18O6.76,"{'Ba': 2.0, 'Ca': 0.06, 'Co': 0.18, 'Cu': 2.8200000000000003, 'Er': 0.9400000000000001, 'O': 6.76}",64.0,64.0,0.0,1,Er0.94 Ca0.06 Ba2 Cu2.82 Co0.18 O6.76
4179,[7319],Nd0.94Ca0.06Ba2Cu3O7-z,Nd0.94Ca0.06Ba2Cu3O7,"{'Ba': 2.0, 'Ca': 0.06, 'Cu': 3.0, 'Nd': 0.9400000000000001, 'O': 7.0}",88.0,88.0,0.0,1,Nd0.94 Ca0.06 Ba2 Cu3 O7
4180,[3540],Y0.94Ca0.06Ba2Cu3O6.97,Y0.94Ca0.06Ba2Cu3O6.97,"{'Ba': 2.0, 'Ca': 0.06, 'Cu': 3.0, 'O': 6.97, 'Y': 0.9400000000000001}",83.4,83.4,0.0,1,Y0.94 Ca0.06 Ba2 Cu3 O6.97
4181,[10661],Y0.89Pr0.05Ca0.06Ba2Cu3O7-z,Y0.89Pr0.05Ca0.06Ba2Cu3O7,"{'Ba': 2.0, 'Ca': 0.06, 'Cu': 3.0, 'O': 7.0, 'Pr': 0.05, 'Y': 0.89}",85.9,85.9,0.0,1,Y0.89 Pr0.05 Ca0.06 Ba2 Cu3 O7
4182,[10665],Y0.84Pr0.1Ca0.06Ba2Cu3O7-z,Y0.84Pr0.1Ca0.06Ba2Cu3O7,"{'Ba': 2.0, 'Ca': 0.06, 'Cu': 3.0, 'O': 7.0, 'Pr': 0.1, 'Y': 0.84}",84.6,84.6,0.0,1,Y0.84 Pr0.1 Ca0.06 Ba2 Cu3 O7
4183,[5330],Tm0.93Ca0.07Ba2Cu4O8,Tm0.93Ca0.07Ba2Cu4O8,"{'Ba': 2.0, 'Ca': 0.07, 'Cu': 4.0, 'O': 8.0, 'Tm': 0.93}",83.3,83.3,0.0,1,Tm0.93 Ca0.07 Ba2 Cu4 O8
4184,"[1530, 5324]",Y0.93Ca0.07Ba2Cu4O8,Y0.93Ca0.07Ba2Cu4O8,"{'Ba': 2.0, 'Ca': 0.07, 'Cu': 4.0, 'O': 8.0, 'Y': 0.93}",89.0,86.25,2.75,2,Y0.93 Ca0.07 Ba2 Cu4 O8
4185,[6218],Y0.925Ca0.075Ba2Cu3O6.68,Y0.925Ca0.075Ba2Cu3O6.68,"{'Ba': 2.0, 'Ca': 0.075, 'Cu': 3.0, 'O': 6.68, 'Y': 0.925}",75.1,75.1,0.0,1,Y0.925 Ca0.075 Ba2 Cu3 O6.68
4186,[6211],Y0.925Ca0.075Ba2Cu3O6.93,Y0.925Ca0.075Ba2Cu3O6.93,"{'Ba': 2.0, 'Ca': 0.075, 'Cu': 3.0, 'O': 6.93, 'Y': 0.925}",86.3,86.3,0.0,1,Y0.925 Ca0.075 Ba2 Cu3 O6.93
4187,[7199],Y0.925Ca0.075Ba2Cu4O8,Y0.925Ca0.075Ba2Cu4O8,"{'Ba': 2.0, 'Ca': 0.075, 'Cu': 4.0, 'O': 8.0, 'Y': 0.925}",83.8,83.8,0.0,1,Y0.925 Ca0.075 Ba2 Cu4 O8
4188,[1433],Y0.77Ca0.08Pr0.15Ba2Cu3O6.95,Y0.77Ca0.08Pr0.15Ba2Cu3O6.95,"{'Ba': 2.0, 'Ca': 0.08, 'Cu': 3.0, 'O': 6.95, 'Pr': 0.15, 'Y': 0.77}",81.7,81.7,0.0,1,Y0.77 Ca0.08 Pr0.15 Ba2 Cu3 O6.95
4189,[10666],Y0.82Pr0.1Ca0.08Ba2Cu3O7-z,Y0.82Pr0.1Ca0.08Ba2Cu3O7,"{'Ba': 2.0, 'Ca': 0.08, 'Cu': 3.0, 'O': 7.0, 'Pr': 0.1, 'Y': 0.8200000000000001}",83.4,83.4,0.0,1,Y0.82 Pr0.1 Ca0.08 Ba2 Cu3 O7