,sc_id,supercon_formula,cleaned_formula,material_dict,highest_Tc,average_Tc,std_Tc,entry_count,composition
5106,[9636],Er1Ba2Cu2.79Zn0.12Fe0.09O6.95,Er1Ba2Cu2.79Zn0.12Fe0.09O6.95,"{'Ba': 2.0, 'Cu': 2.79, 'Er': 1.0, 'Fe': 0.09, 'O': 6.95, 'Zn': 0.12}",42.0,42.0,0.0,1,Er1 Ba2 Cu2.79 Zn0.12 Fe0.09 O6.95
5107,[9640],Er1Ba2Cu2.79Zn0.03Fe0.18O6.97,Er1Ba2Cu2.79Zn0.03Fe0.18O6.97,"{'Ba': 2.0, 'Cu': 2.79, 'Er': 1.0, 'Fe': 0.18, 'O': 6.97, 'Zn': 0.03}",44.0,44.0,0.0,1,Er1 Ba2 Cu2.79 Zn0.03 Fe0.18 O6.97
5108,[845],Y1Ba2Cu2.79Ga0.21O7,Y1Ba2Cu2.79Ga0.21O7,"{'Ba': 2.0, 'Cu': 2.79, 'Ga': 0.21, 'O': 7.0, 'Y': 1.0}",76.91,76.91,0.0,1,Y1 Ba2 Cu2.79 Ga0.21 O7
5109,[9904],Y1Ba2Cu2.79Li0.21O7-Z,Y1Ba2Cu2.79Li0.21O7,"{'Ba': 2.0, 'Cu': 2.79, 'Li': 0.21, 'O': 7.0, 'Y': 1.0}",53.0,53.0,0.0,1,Y1 Ba2 Cu2.79 Li0.21 O7
5110,[7988],Y1Ba2Cu2.79Zn0.21O6.95,Y1Ba2Cu2.79Zn0.21O6.95,"{'Ba': 2.0, 'Cu': 2.79, 'O': 6.95, 'Y': 1.0, 'Zn': 0.21}",20.0,20.0,0.0,1,Y1 Ba2 Cu2.79 Zn0.21 O6.95
5111,[1369],Y1Ba2Cu2.79Zn0.21O6.97,Y1Ba2Cu2.79Zn0.21O6.97,"{'Ba': 2.0, 'Cu': 2.79, 'O': 6.97, 'Y': 1.0, 'Zn': 0.21}",14.2,14.2,0.0,1,Y1 Ba2 Cu2.79 Zn0.21 O6.97
5112,"[860, 1703, 2195, 8101, 8226]",Y1Ba2Cu2.79Zn0.21O7,Y1Ba2Cu2.79Zn0.21O7,"{'Ba': 2.0, 'Cu': 2.79, 'O': 7.0, 'Y': 1.0, 'Zn': 0.21}",35.2,25.52,5.4105082941,5,Y1 Ba2 Cu2.79 Zn0.21 O7
5113,"[746, 771]",Y1Ba2Cu2.799Fe0.201O7-Z,Y1Ba2Cu2.799Fe0.201O7,"{'Ba': 2.0, 'Cu': 2.799, 'Fe': 0.201, 'O': 7.0, 'Y': 1.0}",39.0,39.0,0.0,2,Y1 Ba2 Cu2.799 Fe0.201 O7
5114,[8487],Dy1Ba2Cu2.8Fe0.2O6.93,Dy1Ba2Cu2.8Fe0.2O6.93,"{'Ba': 2.0, 'Cu': 2.8, 'Dy': 1.0, 'Fe': 0.2, 'O': 6.93}",58.0,58.0,0.0,1,Dy1 Ba2 Cu2.8 Fe0.2 O6.93
5115,[7736],Dy1Ba2Cu2.8Ga0.2O6.78,Dy1Ba2Cu2.8Ga0.2O6.78,"{'Ba': 2.0, 'Cu': 2.8, 'Dy': 1.0, 'Ga': 0.2, 'O': 6.78}",50.0,50.0,0.0,1,Dy1 Ba2 Cu2.8 Ga0.2 O6.78
5116,[8502],Dy1Ba2Cu2.8Ni0.2O6.83,Dy1Ba2Cu2.8Ni0.2O6.83,"{'Ba': 2.0, 'Cu': 2.8, 'Dy': 1.0, 'Ni': 0.2, 'O': 6.83}",63.0,63.0,0.0,1,Dy1 Ba2 Cu2.8 Ni0.2 O6.83
5117,[8516],Dy1Ba2Cu2.8Zn0.2O6.95,Dy1Ba2Cu2.8Zn0.2O6.95,"{'Ba': 2.0, 'Cu': 2.8, 'Dy': 1.0, 'O': 6.95, 'Zn': 0.2}",13.0,13.0,0.0,1,Dy1 Ba2 Cu2.8 Zn0.2 O6.95
5118,[7725],Er1Ba2Cu2.8Ga0.2O7-y,Er1Ba2Cu2.8Ga0.2O7,"{'Ba': 2.0, 'Cu': 2.8, 'Er': 1.0, 'Ga': 0.2, 'O': 7.0}",81.0,81.0,0.0,1,Er1 Ba2 Cu2.8 Ga0.2 O7
5119,[7745],Eu1Ba2Cu2.8Ga0.2O6.63,Eu1Ba2Cu2.8Ga0.2O6.63,"{'Ba': 2.0, 'Cu': 2.8, 'Eu': 1.0, 'Ga': 0.2, 'O': 6.63}",14.0,14.0,0.0,1,Eu1 Ba2 Cu2.8 Ga0.2 O6.63
5120,[2511],Gd1Ba2Cu2.8Fe0.2O7-Z,Gd1Ba2Cu2.8Fe0.2O7,"{'Ba': 2.0, 'Cu': 2.8, 'Fe': 0.2, 'Gd': 1.0, 'O': 7.0}",49.0,49.0,0.0,1,Gd1 Ba2 Cu2.8 Fe0.2 O7
5121,[2024],Y1Ba2Cu2.8Fe0.2O6.76,Y1Ba2Cu2.8Fe0.2O6.76,"{'Ba': 2.0, 'Cu': 2.8, 'Fe': 0.2, 'O': 6.76, 'Y': 1.0}",27.8,27.8,0.0,1,Y1 Ba2 Cu2.8 Fe0.2 O6.76
5122,[2025],Y1Ba2Cu2.8Fe0.2O6.8,Y1Ba2Cu2.8Fe0.2O6.8,"{'Ba': 2.0, 'Cu': 2.8, 'Fe': 0.2, 'O': 6.8, 'Y': 1.0}",43.9,43.9,0.0,1,Y1 Ba2 Cu2.8 Fe0.2 O6.8
5123,[2026],Y1Ba2Cu2.8Fe0.2O6.85,Y1Ba2Cu2.8Fe0.2O6.85,"{'Ba': 2.0, 'Cu': 2.8, 'Fe': 0.2, 'O': 6.85, 'Y': 1.0}",57.7,57.7,0.0,1,Y1 Ba2 Cu2.8 Fe0.2 O6.85
5124,[2027],Y1Ba2Cu2.8Fe0.2O6.9,Y1Ba2Cu2.8Fe0.2O6.9,"{'Ba': 2.0, 'Cu': 2.8, 'Fe': 0.2, 'O': 6.9, 'Y': 1.0}",58.8,58.8,0.0,1,Y1 Ba2 Cu2.8 Fe0.2 O6.9
5125,[225],Y1Ba2Cu2.8Fe0.2O6.93,Y1Ba2Cu2.8Fe0.2O6.93,"{'Ba': 2.0, 'Cu': 2.8, 'Fe': 0.2, 'O': 6.93, 'Y': 1.0}",49.0,49.0,0.0,1,Y1 Ba2 Cu2.8 Fe0.2 O6.93
5126,[8479],Sm1Ba2Cu2.8Fe0.2O6.96,Sm1Ba2Cu2.8Fe0.2O6.96,"{'Ba': 2.0, 'Cu': 2.8, 'Fe': 0.2, 'O': 6.96, 'Sm': 1.0}",47.0,47.0,0.0,1,Sm1 Ba2 Cu2.8 Fe0.2 O6.96
5127,[3389],Y1Ba2Cu2.8Fe0.2O7-z,Y1Ba2Cu2.8Fe0.2O7,"{'Ba': 2.0, 'Cu': 2.8, 'Fe': 0.2, 'O': 7.0, 'Y': 1.0}",64.0,64.0,0.0,1,Y1 Ba2 Cu2.8 Fe0.2 O7
5128,[7731],Y1Ba2Cu2.8Ga0.2O7-y,Y1Ba2Cu2.8Ga0.2O7,"{'Ba': 2.0, 'Cu': 2.8, 'Ga': 0.2, 'O': 7.0, 'Y': 1.0}",68.0,68.0,0.0,1,Y1 Ba2 Cu2.8 Ga0.2 O7
5129,[7715],Yb1Ba2Cu2.8Ga0.2O7-y,Yb1Ba2Cu2.8Ga0.2O7,"{'Ba': 2.0, 'Cu': 2.8, 'Ga': 0.2, 'O': 7.0, 'Yb': 1.0}",90.0,90.0,0.0,1,Yb1 Ba2 Cu2.8 Ga0.2 O7
5130,[2508],Gd1Ba2Cu2.8Ni0.2O7-Z,Gd1Ba2Cu2.8Ni0.2O7,"{'Ba': 2.0, 'Cu': 2.8, 'Gd': 1.0, 'Ni': 0.2, 'O': 7.0}",55.1,55.1,0.0,1,Gd1 Ba2 Cu2.8 Ni0.2 O7
5131,[233],Y1Ba2Cu2.8Ni0.2O6.82,Y1Ba2Cu2.8Ni0.2O6.82,"{'Ba': 2.0, 'Cu': 2.8, 'Ni': 0.2, 'O': 6.82, 'Y': 1.0}",45.0,45.0,0.0,1,Y1 Ba2 Cu2.8 Ni0.2 O6.82
5132,[8494],Sm1Ba2Cu2.8Ni0.2O7-z,Sm1Ba2Cu2.8Ni0.2O7,"{'Ba': 2.0, 'Cu': 2.8, 'Ni': 0.2, 'O': 7.0, 'Sm': 1.0}",50.0,50.0,0.0,1,Sm1 Ba2 Cu2.8 Ni0.2 O7
5133,"[900, 999]",Y1Ba2Cu2.8Ni0.2O7,Y1Ba2Cu2.8Ni0.2O7,"{'Ba': 2.0, 'Cu': 2.8, 'Ni': 0.2, 'O': 7.0, 'Y': 1.0}",79.4,71.45,7.95,2,Y1 Ba2 Cu2.8 Ni0.2 O7
5134,[241],Y1Ba2Cu2.8Zn0.2O6.79,Y1Ba2Cu2.8Zn0.2O6.79,"{'Ba': 2.0, 'Cu': 2.8, 'O': 6.79, 'Y': 1.0, 'Zn': 0.2}",45.0,45.0,0.0,1,Y1 Ba2 Cu2.8 Zn0.2 O6.79
5135,[998],Y1Ba2Cu2.8Zn0.2O6.85,Y1Ba2Cu2.8Zn0.2O6.85,"{'Ba': 2.0, 'Cu': 2.8, 'O': 6.85, 'Y': 1.0, 'Zn': 0.2}",30.69,30.69,0.0,1,Y1 Ba2 Cu2.8 Zn0.2 O6.85
5136,[987],Y1Ba2Cu2.8Zn0.2O6.88,Y1Ba2Cu2.8Zn0.2O6.88,"{'Ba': 2.0, 'Cu': 2.8, 'O': 6.88, 'Y': 1.0, 'Zn': 0.2}",54.7,54.7,0.0,1,Y1 Ba2 Cu2.8 Zn0.2 O6.88
5137,"[4908, 8045]",Y1Ba2Cu2.805Fe0.195O7-z,Y1Ba2Cu2.805Fe0.195O7,"{'Ba': 2.0, 'Cu': 2.805, 'Fe': 0.195, 'O': 7.0, 'Y': 1.0}",60.0,55.5,4.5,2,Y1 Ba2 Cu2.805 Fe0.195 O7
5138,[9639],Er1Ba2Cu2.82Fe0.18O6.97,Er1Ba2Cu2.82Fe0.18O6.97,"{'Ba': 2.0, 'Cu': 2.8200000000000003, 'Er': 1.0, 'Fe': 0.18, 'O': 6.97}",72.0,72.0,0.0,1,Er1 Ba2 Cu2.82 Fe0.18 O6.97
5139,[2118],Er1Ba2Cu2.82Ni0.18O7,Er1Ba2Cu2.82Ni0.18O7,"{'Ba': 2.0, 'Cu': 2.8200000000000003, 'Er': 1.0, 'Ni': 0.18, 'O': 7.0}",65.0,65.0,0.0,1,Er1 Ba2 Cu2.82 Ni0.18 O7
5140,[9624],Er1Ba2Cu2.82Zn0.18O6.91,Er1Ba2Cu2.82Zn0.18O6.91,"{'Ba': 2.0, 'Cu': 2.8200000000000003, 'Er': 1.0, 'O': 6.91, 'Zn': 0.18}",50.0,50.0,0.0,1,Er1 Ba2 Cu2.82 Zn0.18 O6.91
5141,[618],Gd1Ba2Cu2.82Fe0.18O6.91,Gd1Ba2Cu2.82Fe0.18O6.91,"{'Ba': 2.0, 'Cu': 2.8200000000000003, 'Fe': 0.18, 'Gd': 1.0, 'O': 6.91}",41.0,41.0,0.0,1,Gd1 Ba2 Cu2.82 Fe0.18 O6.91
5142,[1456],Gd1Ba2Cu2.82Fe0.18O7-Z,Gd1Ba2Cu2.82Fe0.18O7,"{'Ba': 2.0, 'Cu': 2.8200000000000003, 'Fe': 0.18, 'Gd': 1.0, 'O': 7.0}",55.2,55.2,0.0,1,Gd1 Ba2 Cu2.82 Fe0.18 O7
5143,[265],Gd1Ba2Cu2.82Fe0.18O9-Z,Gd1Ba2Cu2.82Fe0.18O9,"{'Ba': 2.0, 'Cu': 2.8200000000000003, 'Fe': 0.18, 'Gd': 1.0, 'O': 9.0}",42.0,42.0,0.0,1,Gd1 Ba2 Cu2.82 Fe0.18 O9
5144,[3311],Y1Ba2Cu2.82Fe0.18O6.895,Y1Ba2Cu2.82Fe0.18O6.895,"{'Ba': 2.0, 'Cu': 2.8200000000000003, 'Fe': 0.18, 'O': 6.895, 'Y': 1.0}",87.7,87.7,0.0,1,Y1 Ba2 Cu2.82 Fe0.18 O6.895
5145,[3310],Y1Ba2Cu2.82Fe0.18O6.95,Y1Ba2Cu2.82Fe0.18O6.95,"{'Ba': 2.0, 'Cu': 2.8200000000000003, 'Fe': 0.18, 'O': 6.95, 'Y': 1.0}",75.6,75.6,0.0,1,Y1 Ba2 Cu2.82 Fe0.18 O6.95
5146,"[583, 990]",Y1Ba2Cu2.82Fe0.18O7,Y1Ba2Cu2.82Fe0.18O7,"{'Ba': 2.0, 'Cu': 2.8200000000000003, 'Fe': 0.18, 'O': 7.0, 'Y': 1.0}",74.0,73.1,0.9,2,Y1 Ba2 Cu2.82 Fe0.18 O7
5147,"[759, 844]",Y1Ba2Cu2.82Ga0.18O7-Z,Y1Ba2Cu2.82Ga0.18O7,"{'Ba': 2.0, 'Cu': 2.8200000000000003, 'Ga': 0.18, 'O': 7.0, 'Y': 1.0}",79.24,68.72,10.52,2,Y1 Ba2 Cu2.82 Ga0.18 O7
5148,"[1831, 8039]",Y1Ba2Cu2.82Ni0.18O7+Z,Y1Ba2Cu2.82Ni0.18O7,"{'Ba': 2.0, 'Cu': 2.8200000000000003, 'Ni': 0.18, 'O': 7.0, 'Y': 1.0}",72.2,70.1,2.1,2,Y1 Ba2 Cu2.82 Ni0.18 O7
5149,[8100],Y1Ba2Cu2.82Zn0.06O7-d,Y1Ba2Cu2.82Zn0.06O7,"{'Ba': 2.0, 'Cu': 2.8200000000000003, 'O': 7.0, 'Y': 1.0, 'Zn': 0.06}",29.9,29.9,0.0,1,Y1 Ba2 Cu2.82 Zn0.06 O7
5150,"[858, 1165, 8225, 20700]",Y1Ba2Cu2.82Zn0.18O7,Y1Ba2Cu2.82Zn0.18O7,"{'Ba': 2.0, 'Cu': 2.8200000000000003, 'O': 7.0, 'Y': 1.0, 'Zn': 0.18}",46.18,37.895,5.2921711046,4,Y1 Ba2 Cu2.82 Zn0.18 O7
5151,[797],Y1Ba2Cu2.829Zn0.171O7-Z,Y1Ba2Cu2.829Zn0.171O7,"{'Ba': 2.0, 'Cu': 2.829, 'O': 7.0, 'Y': 1.0, 'Zn': 0.171}",2.2,2.2,0.0,1,Y1 Ba2 Cu2.829 Zn0.171 O7
5152,[7525],Y1Ba2Cu2.83Fe0.17O7-z,Y1Ba2Cu2.83Fe0.17O7,"{'Ba': 2.0, 'Cu': 2.83, 'Fe': 0.17, 'O': 7.0, 'Y': 1.0}",72.0,72.0,0.0,1,Y1 Ba2 Cu2.83 Fe0.17 O7
5153,[1463],Y1Ba2Cu2.835Fe0.165O6.98,Y1Ba2Cu2.835Fe0.165O6.98,"{'Ba': 2.0, 'Cu': 2.835, 'Fe': 0.165, 'O': 6.98, 'Y': 1.0}",69.3,69.3,0.0,1,Y1 Ba2 Cu2.835 Fe0.165 O6.98
5154,[8259],Y1Ba2Cu2.84Fe0.16O6.959,Y1Ba2Cu2.84Fe0.16O6.959,"{'Ba': 2.0, 'Cu': 2.84, 'Fe': 0.16, 'O': 6.959, 'Y': 1.0}",53.0,53.0,0.0,1,Y1 Ba2 Cu2.84 Fe0.16 O6.959
5155,[8264],Y1Ba2Cu2.84Fe0.16O7.303,Y1Ba2Cu2.84Fe0.16O7.303,"{'Ba': 2.0, 'Cu': 2.84, 'Fe': 0.16, 'O': 7.303, 'Y': 1.0}",85.0,85.0,0.0,1,Y1 Ba2 Cu2.84 Fe0.16 O7.303
5156,[171],Y1Ba2Cu2.844Fe0.156O7,Y1Ba2Cu2.844Fe0.156O7,"{'Ba': 2.0, 'Cu': 2.844, 'Fe': 0.156, 'O': 7.0, 'Y': 1.0}",57.0,57.0,0.0,1,Y1 Ba2 Cu2.844 Fe0.156 O7
5157,[8439],Dy1Ba2Cu2.85Zn0.15O7-y,Dy1Ba2Cu2.85Zn0.15O7,"{'Ba': 2.0, 'Cu': 2.85, 'Dy': 1.0, 'O': 7.0, 'Zn': 0.15}",51.5,51.5,0.0,1,Dy1 Ba2 Cu2.85 Zn0.15 O7
5158,[9630],Er1Ba2Cu2.85Zn0.12Fe0.03O6.94,Er1Ba2Cu2.85Zn0.12Fe0.03O6.94,"{'Ba': 2.0, 'Cu': 2.85, 'Er': 1.0, 'Fe': 0.03, 'O': 6.94, 'Zn': 0.12}",50.0,50.0,0.0,1,Er1 Ba2 Cu2.85 Zn0.12 Fe0.03 O6.94
5159,[9635],Er1Ba2Cu2.85Zn0.06Fe0.09O6.96,Er1Ba2Cu2.85Zn0.06Fe0.09O6.96,"{'Ba': 2.0, 'Cu': 2.85, 'Er': 1.0, 'Fe': 0.09, 'O': 6.96, 'Zn': 0.06}",46.0,46.0,0.0,1,Er1 Ba2 Cu2.85 Zn0.06 Fe0.09 O6.96
5160,[4049],Er1Ba2Cu2.85Fe0.15O7-y,Er1Ba2Cu2.85Fe0.15O7,"{'Ba': 2.0, 'Cu': 2.85, 'Er': 1.0, 'Fe': 0.15, 'O': 7.0}",90.0,90.0,0.0,1,Er1 Ba2 Cu2.85 Fe0.15 O7
5161,[7724],Er1Ba2Cu2.85Ga0.15O6.69,Er1Ba2Cu2.85Ga0.15O6.69,"{'Ba': 2.0, 'Cu': 2.85, 'Er': 1.0, 'Ga': 0.15, 'O': 6.69}",82.0,82.0,0.0,1,Er1 Ba2 Cu2.85 Ga0.15 O6.69
5162,[4051],Er1Ba2Cu2.85Ga0.15O7-y,Er1Ba2Cu2.85Ga0.15O7,"{'Ba': 2.0, 'Cu': 2.85, 'Er': 1.0, 'Ga': 0.15, 'O': 7.0}",89.6,89.6,0.0,1,Er1 Ba2 Cu2.85 Ga0.15 O7
5163,[4047],Er1Ba2Cu2.85Ni0.15O7-y,Er1Ba2Cu2.85Ni0.15O7,"{'Ba': 2.0, 'Cu': 2.85, 'Er': 1.0, 'Ni': 0.15, 'O': 7.0}",89.5,89.5,0.0,1,Er1 Ba2 Cu2.85 Ni0.15 O7
5164,"[2117, 4048, 8423]",Er1Ba2Cu2.85Zn0.15O7,Er1Ba2Cu2.85Zn0.15O7,"{'Ba': 2.0, 'Cu': 2.85, 'Er': 1.0, 'O': 7.0, 'Zn': 0.15}",86.0,64.4666666667,15.2633184101,3,Er1 Ba2 Cu2.85 Zn0.15 O7
5165,[7744],Eu1Ba2Cu2.85Ga0.15O6.76,Eu1Ba2Cu2.85Ga0.15O6.76,"{'Ba': 2.0, 'Cu': 2.85, 'Eu': 1.0, 'Ga': 0.15, 'O': 6.76}",43.0,43.0,0.0,1,Eu1 Ba2 Cu2.85 Ga0.15 O6.76
5166,[8455],Eu1Ba2Cu2.85Zn0.15O7-y,Eu1Ba2Cu2.85Zn0.15O7,"{'Ba': 2.0, 'Cu': 2.85, 'Eu': 1.0, 'O': 7.0, 'Zn': 0.15}",33.6,33.6,0.0,1,Eu1 Ba2 Cu2.85 Zn0.15 O7
5167,[7576],Y1Ba2Cu2.85Fe0.024Zn0.126O7-Z,Y1Ba2Cu2.85Fe0.024Zn0.126O7,"{'Ba': 2.0, 'Cu': 2.85, 'Fe': 0.024, 'O': 7.0, 'Y': 1.0, 'Zn': 0.126}",47.2,47.2,0.0,1,Y1 Ba2 Cu2.85 Fe0.024 Zn0.126 O7
5168,[7577],Y1Ba2Cu2.85Fe0.049Zn0.101O7-Z,Y1Ba2Cu2.85Fe0.049Zn0.101O7,"{'Ba': 2.0, 'Cu': 2.85, 'Fe': 0.049, 'O': 7.0, 'Y': 1.0, 'Zn': 0.101}",46.6,46.6,0.0,1,Y1 Ba2 Cu2.85 Fe0.049 Zn0.101 O7
5169,[7578],Y1Ba2Cu2.85Fe0.075Zn0.075O7-z,Y1Ba2Cu2.85Fe0.075Zn0.075O7,"{'Ba': 2.0, 'Cu': 2.85, 'Fe': 0.075, 'O': 7.0, 'Y': 1.0, 'Zn': 0.075}",50.0,50.0,0.0,1,Y1 Ba2 Cu2.85 Fe0.075 Zn0.075 O7
5170,[7579],Y1Ba2Cu2.85Fe0.097Zn0.052O7-z,Y1Ba2Cu2.85Fe0.097Zn0.052O7,"{'Ba': 2.0, 'Cu': 2.85, 'Fe': 0.097, 'O': 7.0, 'Y': 1.0, 'Zn': 0.052000000000000005}",59.0,59.0,0.0,1,Y1 Ba2 Cu2.85 Fe0.097 Zn0.052 O7
5171,[7580],Y1Ba2Cu2.85Fe0.126Zn0.024O7-Z,Y1Ba2Cu2.85Fe0.126Zn0.024O7,"{'Ba': 2.0, 'Cu': 2.85, 'Fe': 0.126, 'O': 7.0, 'Y': 1.0, 'Zn': 0.024}",67.9,67.9,0.0,1,Y1 Ba2 Cu2.85 Fe0.126 Zn0.024 O7
5172,"[1043, 2973]",Gd1Ba2Cu2.85Fe0.15O7-Z,Gd1Ba2Cu2.85Fe0.15O7,"{'Ba': 2.0, 'Cu': 2.85, 'Fe': 0.15, 'Gd': 1.0, 'O': 7.0}",63.1,55.05,8.05,2,Gd1 Ba2 Cu2.85 Fe0.15 O7
5173,[8590],Ho1Ba2Cu2.85Fe0.15O7-y,Ho1Ba2Cu2.85Fe0.15O7,"{'Ba': 2.0, 'Cu': 2.85, 'Fe': 0.15, 'Ho': 1.0, 'O': 7.0}",85.0,85.0,0.0,1,Ho1 Ba2 Cu2.85 Fe0.15 O7
5174,[8581],Nd1Ba2Cu2.85Fe0.15O7-y,Nd1Ba2Cu2.85Fe0.15O7,"{'Ba': 2.0, 'Cu': 2.85, 'Fe': 0.15, 'Nd': 1.0, 'O': 7.0}",57.0,57.0,0.0,1,Nd1 Ba2 Cu2.85 Fe0.15 O7
5175,[8595],Tm1Ba2Cu2.85Fe0.15O7-y,Tm1Ba2Cu2.85Fe0.15O7,"{'Ba': 2.0, 'Cu': 2.85, 'Fe': 0.15, 'O': 7.0, 'Tm': 1.0}",86.0,86.0,0.0,1,Tm1 Ba2 Cu2.85 Fe0.15 O7
5176,"[85, 176, 177, 795, 1331, 1633, 7581]",Y1Ba2Cu2.85Fe0.15O7,Y1Ba2Cu2.85Fe0.15O7,"{'Ba': 2.0, 'Cu': 2.85, 'Fe': 0.15, 'O': 7.0, 'Y': 1.0}",75.0,62.9714285714,10.0959276494,7,Y1 Ba2 Cu2.85 Fe0.15 O7
5177,[2158],Y1Ba2Cu2.85Fe0.15O7.02,Y1Ba2Cu2.85Fe0.15O7.02,"{'Ba': 2.0, 'Cu': 2.85, 'Fe': 0.15, 'O': 7.02, 'Y': 1.0}",76.0,76.0,0.0,1,Y1 Ba2 Cu2.85 Fe0.15 O7.02
5178,[7583],Y1Ba2Cu2.85Ga0.025Ni0.124O7-z,Y1Ba2Cu2.85Ga0.025Ni0.124O7,"{'Ba': 2.0, 'Cu': 2.85, 'Ga': 0.025, 'Ni': 0.124, 'O': 7.0, 'Y': 1.0}",74.4,74.4,0.0,1,Y1 Ba2 Cu2.85 Ga0.025 Ni0.124 O7
5179,[7590],Y1Ba2Cu2.85Ga0.025Zn0.124O7-z,Y1Ba2Cu2.85Ga0.025Zn0.124O7,"{'Ba': 2.0, 'Cu': 2.85, 'Ga': 0.025, 'O': 7.0, 'Y': 1.0, 'Zn': 0.124}",54.2,54.2,0.0,1,Y1 Ba2 Cu2.85 Ga0.025 Zn0.124 O7
5180,[1499],Y1Ba2Cu2.85Zn0.114Ga0.036O7-Z,Y1Ba2Cu2.85Zn0.114Ga0.036O7,"{'Ba': 2.0, 'Cu': 2.85, 'Ga': 0.036000000000000004, 'O': 7.0, 'Y': 1.0, 'Zn': 0.114}",40.2,40.2,0.0,1,Y1 Ba2 Cu2.85 Zn0.114 Ga0.036 O7
5181,[7584],Y1Ba2Cu2.85Ga0.049Ni0.101O7-z,Y1Ba2Cu2.85Ga0.049Ni0.101O7,"{'Ba': 2.0, 'Cu': 2.85, 'Ga': 0.049, 'Ni': 0.101, 'O': 7.0, 'Y': 1.0}",70.7,70.7,0.0,1,Y1 Ba2 Cu2.85 Ga0.049 Ni0.101 O7
5182,[7591],Y1Ba2Cu2.85Ga0.049Zn0.101O7-z,Y1Ba2Cu2.85Ga0.049Zn0.101O7,"{'Ba': 2.0, 'Cu': 2.85, 'Ga': 0.049, 'O': 7.0, 'Y': 1.0, 'Zn': 0.101}",63.0,63.0,0.0,1,Y1 Ba2 Cu2.85 Ga0.049 Zn0.101 O7
5183,[7585],Y1Ba2Cu2.85Ga0.075Ni0.075O7-z,Y1Ba2Cu2.85Ga0.075Ni0.075O7,"{'Ba': 2.0, 'Cu': 2.85, 'Ga': 0.075, 'Ni': 0.075, 'O': 7.0, 'Y': 1.0}",65.0,65.0,0.0,1,Y1 Ba2 Cu2.85 Ga0.075 Ni0.075 O7
5184,"[1500, 7592]",Y1Ba2Cu2.85Zn0.075Ga0.075O7-Z,Y1Ba2Cu2.85Zn0.075Ga0.075O7,"{'Ba': 2.0, 'Cu': 2.85, 'Ga': 0.075, 'O': 7.0, 'Y': 1.0, 'Zn': 0.075}",66.3,54.3,12.0,2,Y1 Ba2 Cu2.85 Zn0.075 Ga0.075 O7
5185,[7586],Y1Ba2Cu2.85Ga0.097Ni0.052O7-z,Y1Ba2Cu2.85Ga0.097Ni0.052O7,"{'Ba': 2.0, 'Cu': 2.85, 'Ga': 0.097, 'Ni': 0.052000000000000005, 'O': 7.0, 'Y': 1.0}",66.6,66.6,0.0,1,Y1 Ba2 Cu2.85 Ga0.097 Ni0.052 O7
5186,[7593],Y1Ba2Cu2.85Ga0.101Zn0.049O7-z,Y1Ba2Cu2.85Ga0.101Zn0.049O7,"{'Ba': 2.0, 'Cu': 2.85, 'Ga': 0.101, 'O': 7.0, 'Y': 1.0, 'Zn': 0.049}",63.7,63.7,0.0,1,Y1 Ba2 Cu2.85 Ga0.101 Zn0.049 O7
5187,[1501],Y1Ba2Cu2.85Zn0.036Ga0.114O7-Z,Y1Ba2Cu2.85Zn0.036Ga0.114O7,"{'Ba': 2.0, 'Cu': 2.85, 'Ga': 0.114, 'O': 7.0, 'Y': 1.0, 'Zn': 0.036000000000000004}",55.1,55.1,0.0,1,Y1 Ba2 Cu2.85 Zn0.036 Ga0.114 O7
5188,[7587],Y1Ba2Cu2.85Ga0.126Ni0.024O7-z,Y1Ba2Cu2.85Ga0.126Ni0.024O7,"{'Ba': 2.0, 'Cu': 2.85, 'Ga': 0.126, 'Ni': 0.024, 'O': 7.0, 'Y': 1.0}",74.4,74.4,0.0,1,Y1 Ba2 Cu2.85 Ga0.126 Ni0.024 O7
5189,[7594],Y1Ba2Cu2.85Ga0.126Zn0.024O7-z,Y1Ba2Cu2.85Ga0.126Zn0.024O7,"{'Ba': 2.0, 'Cu': 2.85, 'Ga': 0.126, 'O': 7.0, 'Y': 1.0, 'Zn': 0.024}",66.3,66.3,0.0,1,Y1 Ba2 Cu2.85 Ga0.126 Zn0.024 O7
5190,[7720],Nd1Ba2Cu2.85Ga0.15O6.62,Nd1Ba2Cu2.85Ga0.15O6.62,"{'Ba': 2.0, 'Cu': 2.85, 'Ga': 0.15, 'Nd': 1.0, 'O': 6.62}",23.0,23.0,0.0,1,Nd1 Ba2 Cu2.85 Ga0.15 O6.62
5191,"[291, 758, 843, 1502, 7588, 7595, 7730]",Y1Ba2Cu2.85Ga0.15O7-Z,Y1Ba2Cu2.85Ga0.15O7,"{'Ba': 2.0, 'Cu': 2.85, 'Ga': 0.15, 'O': 7.0, 'Y': 1.0}",78.49,75.2842857143,3.1474336809,7,Y1 Ba2 Cu2.85 Ga0.15 O7
5192,[7714],Yb1Ba2Cu2.85Ga0.15O7-y,Yb1Ba2Cu2.85Ga0.15O7,"{'Ba': 2.0, 'Cu': 2.85, 'Ga': 0.15, 'O': 7.0, 'Yb': 1.0}",90.0,90.0,0.0,1,Yb1 Ba2 Cu2.85 Ga0.15 O7
5193,[11216],Y1Ba2Cu2.85Gd0.15O7-z,Y1Ba2Cu2.85Gd0.15O7,"{'Ba': 2.0, 'Cu': 2.85, 'Gd': 0.15, 'O': 7.0, 'Y': 1.0}",44.1,44.1,0.0,1,Y1 Ba2 Cu2.85 Gd0.15 O7
5194,[8447],Gd1Ba2Cu2.85Zn0.15O7-y,Gd1Ba2Cu2.85Zn0.15O7,"{'Ba': 2.0, 'Cu': 2.85, 'Gd': 1.0, 'O': 7.0, 'Zn': 0.15}",42.4,42.4,0.0,1,Gd1 Ba2 Cu2.85 Zn0.15 O7
5195,"[2882, 9116, 10043]",Y1Ba2Cu2.85Mn0.15O7-Z,Y1Ba2Cu2.85Mn0.15O7,"{'Ba': 2.0, 'Cu': 2.85, 'Mn': 0.15, 'O': 7.0, 'Y': 1.0}",91.1,87.49,3.9457403192,3,Y1 Ba2 Cu2.85 Mn0.15 O7
5196,[8557],Nd1Ba2Cu2.85Ni0.15O7-y,Nd1Ba2Cu2.85Ni0.15O7,"{'Ba': 2.0, 'Cu': 2.85, 'Nd': 1.0, 'Ni': 0.15, 'O': 7.0}",75.0,75.0,0.0,1,Nd1 Ba2 Cu2.85 Ni0.15 O7
5197,[7597],Y1Ba2Cu2.85Ni0.025Zn0.124O7-z,Y1Ba2Cu2.85Ni0.025Zn0.124O7,"{'Ba': 2.0, 'Cu': 2.85, 'Ni': 0.025, 'O': 7.0, 'Y': 1.0, 'Zn': 0.124}",47.9,47.9,0.0,1,Y1 Ba2 Cu2.85 Ni0.025 Zn0.124 O7
5198,[7598],Y1Ba2Cu2.85Ni0.051Zn0.099O7-z,Y1Ba2Cu2.85Ni0.051Zn0.099O7,"{'Ba': 2.0, 'Cu': 2.85, 'Ni': 0.051000000000000004, 'O': 7.0, 'Y': 1.0, 'Zn': 0.099}",52.5,52.5,0.0,1,Y1 Ba2 Cu2.85 Ni0.051 Zn0.099 O7
5199,[3733],Y1Ba2Cu2.85Ni0.075Zn0.075O7-z,Y1Ba2Cu2.85Ni0.075Zn0.075O7,"{'Ba': 2.0, 'Cu': 2.85, 'Ni': 0.075, 'O': 7.0, 'Y': 1.0, 'Zn': 0.075}",58.0,58.0,0.0,1,Y1 Ba2 Cu2.85 Ni0.075 Zn0.075 O7
5200,[3734],Y1Ba2Cu2.85Ni0.101Zn0.049O7-z,Y1Ba2Cu2.85Ni0.101Zn0.049O7,"{'Ba': 2.0, 'Cu': 2.85, 'Ni': 0.101, 'O': 7.0, 'Y': 1.0, 'Zn': 0.049}",62.0,62.0,0.0,1,Y1 Ba2 Cu2.85 Ni0.101 Zn0.049 O7
5201,[3735],Y1Ba2Cu2.85Ni0.124Zn0.025O7-z,Y1Ba2Cu2.85Ni0.124Zn0.025O7,"{'Ba': 2.0, 'Cu': 2.85, 'Ni': 0.124, 'O': 7.0, 'Y': 1.0, 'Zn': 0.025}",64.6,64.6,0.0,1,Y1 Ba2 Cu2.85 Ni0.124 Zn0.025 O7
5202,[1401],Y1Ba2Cu2.85Ni0.15O6.78,Y1Ba2Cu2.85Ni0.15O6.78,"{'Ba': 2.0, 'Cu': 2.85, 'Ni': 0.15, 'O': 6.78, 'Y': 1.0}",41.3,41.3,0.0,1,Y1 Ba2 Cu2.85 Ni0.15 O6.78
5203,[413],Y1Ba2Cu2.85Ni0.15O6.84,Y1Ba2Cu2.85Ni0.15O6.84,"{'Ba': 2.0, 'Cu': 2.85, 'Ni': 0.15, 'O': 6.84, 'Y': 1.0}",75.0,75.0,0.0,1,Y1 Ba2 Cu2.85 Ni0.15 O6.84
5204,[1400],Y1Ba2Cu2.85Ni0.15O6.9,Y1Ba2Cu2.85Ni0.15O6.9,"{'Ba': 2.0, 'Cu': 2.85, 'Ni': 0.15, 'O': 6.9, 'Y': 1.0}",73.0,73.0,0.0,1,Y1 Ba2 Cu2.85 Ni0.15 O6.9
5205,[1399],Y1Ba2Cu2.85Ni0.15O6.97,Y1Ba2Cu2.85Ni0.15O6.97,"{'Ba': 2.0, 'Cu': 2.85, 'Ni': 0.15, 'O': 6.97, 'Y': 1.0}",77.2,77.2,0.0,1,Y1 Ba2 Cu2.85 Ni0.15 O6.97
5206,[8575],Tm1Ba2Cu2.85Ni0.15O7-y,Tm1Ba2Cu2.85Ni0.15O7,"{'Ba': 2.0, 'Cu': 2.85, 'Ni': 0.15, 'O': 7.0, 'Tm': 1.0}",84.0,84.0,0.0,1,Tm1 Ba2 Cu2.85 Ni0.15 O7
5207,"[1453, 7582, 8563]",Y1Ba2Cu2.85Ni0.15O7-Z,Y1Ba2Cu2.85Ni0.15O7,"{'Ba': 2.0, 'Cu': 2.85, 'Ni': 0.15, 'O': 7.0, 'Y': 1.0}",74.6,73.7666666667,0.6548960901,3,Y1 Ba2 Cu2.85 Ni0.15 O7
5208,[997],Y1Ba2Cu2.85Zn0.15O6.85,Y1Ba2Cu2.85Zn0.15O6.85,"{'Ba': 2.0, 'Cu': 2.85, 'O': 6.85, 'Y': 1.0, 'Zn': 0.15}",47.6,47.6,0.0,1,Y1 Ba2 Cu2.85 Zn0.15 O6.85
5209,[1368],Y1Ba2Cu2.85Zn0.15O6.9,Y1Ba2Cu2.85Zn0.15O6.9,"{'Ba': 2.0, 'Cu': 2.85, 'O': 6.9, 'Y': 1.0, 'Zn': 0.15}",32.5,32.5,0.0,1,Y1 Ba2 Cu2.85 Zn0.15 O6.9
5210,[3204],Y1Ba2Cu2.85Zn0.15O6.95,Y1Ba2Cu2.85Zn0.15O6.95,"{'Ba': 2.0, 'Cu': 2.85, 'O': 6.95, 'Y': 1.0, 'Zn': 0.15}",39.2,39.2,0.0,1,Y1 Ba2 Cu2.85 Zn0.15 O6.95
5211,[1367],Y1Ba2Cu2.85Zn0.15O6.97,Y1Ba2Cu2.85Zn0.15O6.97,"{'Ba': 2.0, 'Cu': 2.85, 'O': 6.97, 'Y': 1.0, 'Zn': 0.15}",39.0,39.0,0.0,1,Y1 Ba2 Cu2.85 Zn0.15 O6.97
5212,[8463],Sm1Ba2Cu2.85Zn0.15O7-y,Sm1Ba2Cu2.85Zn0.15O7,"{'Ba': 2.0, 'Cu': 2.85, 'O': 7.0, 'Sm': 1.0, 'Zn': 0.15}",31.8,31.8,0.0,1,Sm1 Ba2 Cu2.85 Zn0.15 O7
5213,"[798, 857, 1498, 1702, 2198, 3798, 7530, 7575, 7589, 7596, 8099, 8215, 8431]",Y1Ba2Cu2.85Zn0.15O7-Z,Y1Ba2Cu2.85Zn0.15O7,"{'Ba': 2.0, 'Cu': 2.85, 'O': 7.0, 'Y': 1.0, 'Zn': 0.15}",55.1,41.7253846154,9.2824504518,13,Y1 Ba2 Cu2.85 Zn0.15 O7
5214,[3917],Y1Ba2Cu2.85Zr0.15O7-z,Y1Ba2Cu2.85Zr0.15O7,"{'Ba': 2.0, 'Cu': 2.85, 'O': 7.0, 'Y': 1.0, 'Zr': 0.15}",82.5,82.5,0.0,1,Y1 Ba2 Cu2.85 Zr0.15 O7
5215,[9959],Y1Re0.15Ba2Cu2.85O7.07,Y1Re0.15Ba2Cu2.85O7.07,"{'Ba': 2.0, 'Cu': 2.85, 'O': 7.07, 'Re': 0.15, 'Y': 1.0}",91.5,91.5,0.0,1,Y1 Re0.15 Ba2 Cu2.85 O7.07
5216,[9963],Y1Re0.15Ba2Cu2.85O7.13,Y1Re0.15Ba2Cu2.85O7.13,"{'Ba': 2.0, 'Cu': 2.85, 'O': 7.13, 'Re': 0.15, 'Y': 1.0}",90.0,90.0,0.0,1,Y1 Re0.15 Ba2 Cu2.85 O7.13
5217,[9967],Y1Re0.15Ba2Cu2.85O7.17,Y1Re0.15Ba2Cu2.85O7.17,"{'Ba': 2.0, 'Cu': 2.85, 'O': 7.17, 'Re': 0.15, 'Y': 1.0}",91.0,91.0,0.0,1,Y1 Re0.15 Ba2 Cu2.85 O7.17
5218,[799],Y1Ba2Cu2.868Zn0.132O7-Z,Y1Ba2Cu2.868Zn0.132O7,"{'Ba': 2.0, 'Cu': 2.868, 'O': 7.0, 'Y': 1.0, 'Zn': 0.132}",19.3,19.3,0.0,1,Y1 Ba2 Cu2.868 Zn0.132 O7
5219,"[3203, 7524]",Y1Ba2Cu2.87Fe0.13O7-Z,Y1Ba2Cu2.87Fe0.13O7,"{'Ba': 2.0, 'Cu': 2.87, 'Fe': 0.13, 'O': 7.0, 'Y': 1.0}",78.0,75.75,2.25,2,Y1 Ba2 Cu2.87 Fe0.13 O7
5220,[9634],Er1Ba2Cu2.88Zn0.03Fe0.09O6.95,Er1Ba2Cu2.88Zn0.03Fe0.09O6.95,"{'Ba': 2.0, 'Cu': 2.88, 'Er': 1.0, 'Fe': 0.09, 'O': 6.95, 'Zn': 0.03}",65.0,65.0,0.0,1,Er1 Ba2 Cu2.88 Zn0.03 Fe0.09 O6.95
5221,[9623],Er1Ba2Cu2.88Zn0.12O6.92,Er1Ba2Cu2.88Zn0.12O6.92,"{'Ba': 2.0, 'Cu': 2.88, 'Er': 1.0, 'O': 6.92, 'Zn': 0.12}",52.0,52.0,0.0,1,Er1 Ba2 Cu2.88 Zn0.12 O6.92