,sc_id,supercon_formula,cleaned_formula,material_dict,highest_Tc,average_Tc,std_Tc,entry_count,composition
5585,[5122],Dy0.95Pr0.05Ba2Cu3O6.9,Dy0.95Pr0.05Ba2Cu3O6.9,"{'Ba': 2.0, 'Cu': 3.0, 'Dy': 0.9500000000000001, 'O': 6.9, 'Pr': 0.05}",91.4,91.4,0.0,1,Dy0.95 Pr0.05 Ba2 Cu3 O6.9
5586,[7954],Dy1Ba2Cu3O6,Dy1Ba2Cu3O6,"{'Ba': 2.0, 'Cu': 3.0, 'Dy': 1.0, 'O': 6.0}",90.0,90.0,0.0,1,Dy1 Ba2 Cu3 O6
5587,[8496],Dy1Ba2Cu3O6.68,Dy1Ba2Cu3O6.68,"{'Ba': 2.0, 'Cu': 3.0, 'Dy': 1.0, 'O': 6.68}",90.0,90.0,0.0,1,Dy1 Ba2 Cu3 O6.68
5588,[7733],Dy1Ba2Cu3O6.75,Dy1Ba2Cu3O6.75,"{'Ba': 2.0, 'Cu': 3.0, 'Dy': 1.0, 'O': 6.75}",94.0,94.0,0.0,1,Dy1 Ba2 Cu3 O6.75
5589,[8511],Dy1Ba2Cu3O6.79,Dy1Ba2Cu3O6.79,"{'Ba': 2.0, 'Cu': 3.0, 'Dy': 1.0, 'O': 6.79}",90.0,90.0,0.0,1,Dy1 Ba2 Cu3 O6.79
5590,[152],Dy1Ba2Cu3O6.82,Dy1Ba2Cu3O6.82,"{'Ba': 2.0, 'Cu': 3.0, 'Dy': 1.0, 'O': 6.82}",92.7,92.7,0.0,1,Dy1 Ba2 Cu3 O6.82
5591,[8481],Dy1Ba2Cu3O6.84,Dy1Ba2Cu3O6.84,"{'Ba': 2.0, 'Cu': 3.0, 'Dy': 1.0, 'O': 6.84}",90.0,90.0,0.0,1,Dy1 Ba2 Cu3 O6.84
5592,[10580],Dy1Ba2Cu3O6.879,Dy1Ba2Cu3O6.879,"{'Ba': 2.0, 'Cu': 3.0, 'Dy': 1.0, 'O': 6.879}",86.0,86.0,0.0,1,Dy1 Ba2 Cu3 O6.879
5593,[5121],Dy1Ba2Cu3O6.9,Dy1Ba2Cu3O6.9,"{'Ba': 2.0, 'Cu': 3.0, 'Dy': 1.0, 'O': 6.9}",92.3,92.3,0.0,1,Dy1 Ba2 Cu3 O6.9
5594,[3117],Dy1Ba2Cu3O6.94,Dy1Ba2Cu3O6.94,"{'Ba': 2.0, 'Cu': 3.0, 'Dy': 1.0, 'O': 6.94}",88.7,88.7,0.0,1,Dy1 Ba2 Cu3 O6.94
5595,"[323, 333, 1268, 1616, 1680, 1681, 2918, 3303, 5640, 6607, 7955, 8074, 8153, 8432, 8943]",Dy1Ba2Cu3O7-Z,Dy1Ba2Cu3O7,"{'Ba': 2.0, 'Cu': 3.0, 'Dy': 1.0, 'O': 7.0}",95.1,87.7033333333,11.0612607278,15,Dy1 Ba2 Cu3 O7
5596,[272],Er0.25Yb0.75Ba2Cu3O7-Z,Er0.25Yb0.75Ba2Cu3O7,"{'Ba': 2.0, 'Cu': 3.0, 'Er': 0.25, 'O': 7.0, 'Yb': 0.75}",86.3,86.3,0.0,1,Er0.25 Yb0.75 Ba2 Cu3 O7
5597,[271],Er0.37Yb0.63Ba2Cu3O7-Z,Er0.37Yb0.63Ba2Cu3O7,"{'Ba': 2.0, 'Cu': 3.0, 'Er': 0.37, 'O': 7.0, 'Yb': 0.63}",87.8,87.8,0.0,1,Er0.37 Yb0.63 Ba2 Cu3 O7
5598,[3238],Er0.4Eu0.3Pr0.3Ba2Cu3O7-Z,Er0.4Eu0.3Pr0.3Ba2Cu3O7,"{'Ba': 2.0, 'Cu': 3.0, 'Er': 0.4, 'Eu': 0.30000000000000004, 'O': 7.0, 'Pr': 0.30000000000000004}",47.8,47.8,0.0,1,Er0.4 Eu0.3 Pr0.3 Ba2 Cu3 O7
5599,[3236],Er0.5Eu0.2Pr0.3Ba2Cu3O7-Z,Er0.5Eu0.2Pr0.3Ba2Cu3O7,"{'Ba': 2.0, 'Cu': 3.0, 'Er': 0.5, 'Eu': 0.2, 'O': 7.0, 'Pr': 0.30000000000000004}",52.1,52.1,0.0,1,Er0.5 Eu0.2 Pr0.3 Ba2 Cu3 O7
5600,[2722],Er0.5Pr0.5Ba2Cu3O6.82,Er0.5Pr0.5Ba2Cu3O6.82,"{'Ba': 2.0, 'Cu': 3.0, 'Er': 0.5, 'O': 6.82, 'Pr': 0.5}",34.4,34.4,0.0,1,Er0.5 Pr0.5 Ba2 Cu3 O6.82
5601,[3888],Er0.5Pr0.5Ba2Cu3O7,Er0.5Pr0.5Ba2Cu3O7,"{'Ba': 2.0, 'Cu': 3.0, 'Er': 0.5, 'O': 7.0, 'Pr': 0.5}",28.6,28.6,0.0,1,Er0.5 Pr0.5 Ba2 Cu3 O7
5602,[5082],Er0.5Y0.5Ba2Cu3O7-z,Er0.5Y0.5Ba2Cu3O7,"{'Ba': 2.0, 'Cu': 3.0, 'Er': 0.5, 'O': 7.0, 'Y': 0.5}",91.8,91.8,0.0,1,Er0.5 Y0.5 Ba2 Cu3 O7
5603,[270],Er0.5Yb0.5Ba2Cu3O7-Z,Er0.5Yb0.5Ba2Cu3O7,"{'Ba': 2.0, 'Cu': 3.0, 'Er': 0.5, 'O': 7.0, 'Yb': 0.5}",89.3,89.3,0.0,1,Er0.5 Yb0.5 Ba2 Cu3 O7
5604,[3887],Er0.6Pr0.4Ba2Cu3O7,Er0.6Pr0.4Ba2Cu3O7,"{'Ba': 2.0, 'Cu': 3.0, 'Er': 0.6000000000000001, 'O': 7.0, 'Pr': 0.4}",45.8,45.8,0.0,1,Er0.6 Pr0.4 Ba2 Cu3 O7
5605,[269],Er0.62Yb0.38Ba2Cu3O7-Z,Er0.62Yb0.38Ba2Cu3O7,"{'Ba': 2.0, 'Cu': 3.0, 'Er': 0.62, 'O': 7.0, 'Yb': 0.38}",88.3,88.3,0.0,1,Er0.62 Yb0.38 Ba2 Cu3 O7
5606,[3886],Er0.7Pr0.3Ba2Cu3O7,Er0.7Pr0.3Ba2Cu3O7,"{'Ba': 2.0, 'Cu': 3.0, 'Er': 0.7000000000000001, 'O': 7.0, 'Pr': 0.30000000000000004}",61.1,61.1,0.0,1,Er0.7 Pr0.3 Ba2 Cu3 O7
5607,[268],Er0.75Yb0.25Ba2Cu3O7-Z,Er0.75Yb0.25Ba2Cu3O7,"{'Ba': 2.0, 'Cu': 3.0, 'Er': 0.75, 'O': 7.0, 'Yb': 0.25}",87.6,87.6,0.0,1,Er0.75 Yb0.25 Ba2 Cu3 O7
5608,[4864],Er0.8Hf0.2Ba2Cu3O6.772,Er0.8Hf0.2Ba2Cu3O6.772,"{'Ba': 2.0, 'Cu': 3.0, 'Er': 0.8, 'Hf': 0.2, 'O': 6.772}",78.8,78.8,0.0,1,Er0.8 Hf0.2 Ba2 Cu3 O6.772
5609,"[1903, 3885, 6810, 8600, 9048]",Er0.8Pr0.2Ba2Cu3O7-Z,Er0.8Pr0.2Ba2Cu3O7,"{'Ba': 2.0, 'Cu': 3.0, 'Er': 0.8, 'O': 7.0, 'Pr': 0.2}",80.0,77.88,1.340746061,5,Er0.8 Pr0.2 Ba2 Cu3 O7
5610,[4863],Er0.85Hf0.15Ba2Cu3O6.813,Er0.85Hf0.15Ba2Cu3O6.813,"{'Ba': 2.0, 'Cu': 3.0, 'Er': 0.85, 'Hf': 0.15, 'O': 6.813}",79.9,79.9,0.0,1,Er0.85 Hf0.15 Ba2 Cu3 O6.813
5611,[3884],Er0.85Pr0.15Ba2Cu3O7,Er0.85Pr0.15Ba2Cu3O7,"{'Ba': 2.0, 'Cu': 3.0, 'Er': 0.85, 'O': 7.0, 'Pr': 0.15}",82.9,82.9,0.0,1,Er0.85 Pr0.15 Ba2 Cu3 O7
5612,[4862],Er0.9Hf0.1Ba2Cu3O6.862,Er0.9Hf0.1Ba2Cu3O6.862,"{'Ba': 2.0, 'Cu': 3.0, 'Er': 0.9, 'Hf': 0.1, 'O': 6.862}",82.9,82.9,0.0,1,Er0.9 Hf0.1 Ba2 Cu3 O6.862
5613,[9053],Er0.9Pr0.1Ba2Cu3O7-Z,Er0.9Pr0.1Ba2Cu3O7,"{'Ba': 2.0, 'Cu': 3.0, 'Er': 0.9, 'O': 7.0, 'Pr': 0.1}",80.0,80.0,0.0,1,Er0.9 Pr0.1 Ba2 Cu3 O7
5614,[3883],Er0.924Pr0.076Ba2Cu3O7,Er0.924Pr0.076Ba2Cu3O7,"{'Ba': 2.0, 'Cu': 3.0, 'Er': 0.924, 'O': 7.0, 'Pr': 0.076}",91.1,91.1,0.0,1,Er0.924 Pr0.076 Ba2 Cu3 O7
5615,[4861],Er0.95Hf0.05Ba2Cu3O6.938,Er0.95Hf0.05Ba2Cu3O6.938,"{'Ba': 2.0, 'Cu': 3.0, 'Er': 0.9500000000000001, 'Hf': 0.05, 'O': 6.938}",86.0,86.0,0.0,1,Er0.95 Hf0.05 Ba2 Cu3 O6.938
5616,[3882],Er0.97Pr0.03Ba2Cu3O7,Er0.97Pr0.03Ba2Cu3O7,"{'Ba': 2.0, 'Cu': 3.0, 'Er': 0.97, 'O': 7.0, 'Pr': 0.03}",93.9,93.9,0.0,1,Er0.97 Pr0.03 Ba2 Cu3 O7
5617,[555],Er1Ba2Cu3O6.15,Er1Ba2Cu3O6.15,"{'Ba': 2.0, 'Cu': 3.0, 'Er': 1.0, 'O': 6.15}",35.0,35.0,0.0,1,Er1 Ba2 Cu3 O6.15
5618,[557],Er1Ba2Cu3O6.31,Er1Ba2Cu3O6.31,"{'Ba': 2.0, 'Cu': 3.0, 'Er': 1.0, 'O': 6.31}",55.0,55.0,0.0,1,Er1 Ba2 Cu3 O6.31
5619,[556],Er1Ba2Cu3O6.34,Er1Ba2Cu3O6.34,"{'Ba': 2.0, 'Cu': 3.0, 'Er': 1.0, 'O': 6.34}",20.0,20.0,0.0,1,Er1 Ba2 Cu3 O6.34
5620,[672],Er1Ba2Cu3O6.53,Er1Ba2Cu3O6.53,"{'Ba': 2.0, 'Cu': 3.0, 'Er': 1.0, 'O': 6.53}",54.3,54.3,0.0,1,Er1 Ba2 Cu3 O6.53
5621,[7953],Er1Ba2Cu3O6.6,Er1Ba2Cu3O6.6,"{'Ba': 2.0, 'Cu': 3.0, 'Er': 1.0, 'O': 6.6}",75.0,75.0,0.0,1,Er1 Ba2 Cu3 O6.6
5622,[673],Er1Ba2Cu3O6.64,Er1Ba2Cu3O6.64,"{'Ba': 2.0, 'Cu': 3.0, 'Er': 1.0, 'O': 6.64}",61.3,61.3,0.0,1,Er1 Ba2 Cu3 O6.64
5623,[558],Er1Ba2Cu3O6.67,Er1Ba2Cu3O6.67,"{'Ba': 2.0, 'Cu': 3.0, 'Er': 1.0, 'O': 6.67}",85.0,85.0,0.0,1,Er1 Ba2 Cu3 O6.67
5624,[674],Er1Ba2Cu3O6.78,Er1Ba2Cu3O6.78,"{'Ba': 2.0, 'Cu': 3.0, 'Er': 1.0, 'O': 6.78}",78.2,78.2,0.0,1,Er1 Ba2 Cu3 O6.78
5625,[154],Er1Ba2Cu3O6.82,Er1Ba2Cu3O6.82,"{'Ba': 2.0, 'Cu': 3.0, 'Er': 1.0, 'O': 6.82}",92.4,92.4,0.0,1,Er1 Ba2 Cu3 O6.82
5626,[7721],Er1Ba2Cu3O6.85,Er1Ba2Cu3O6.85,"{'Ba': 2.0, 'Cu': 3.0, 'Er': 1.0, 'O': 6.85}",93.0,93.0,0.0,1,Er1 Ba2 Cu3 O6.85
5627,[675],Er1Ba2Cu3O6.87,Er1Ba2Cu3O6.87,"{'Ba': 2.0, 'Cu': 3.0, 'Er': 1.0, 'O': 6.87}",94.5,94.5,0.0,1,Er1 Ba2 Cu3 O6.87
5628,[559],Er1Ba2Cu3O6.91,Er1Ba2Cu3O6.91,"{'Ba': 2.0, 'Cu': 3.0, 'Er': 1.0, 'O': 6.91}",92.0,92.0,0.0,1,Er1 Ba2 Cu3 O6.91
5629,[4061],Er1Ba2Cu3O6.92,Er1Ba2Cu3O6.92,"{'Ba': 2.0, 'Cu': 3.0, 'Er': 1.0, 'O': 6.92}",90.0,90.0,0.0,1,Er1 Ba2 Cu3 O6.92
5630,[9620],Er1Ba2Cu3O6.93,Er1Ba2Cu3O6.93,"{'Ba': 2.0, 'Cu': 3.0, 'Er': 1.0, 'O': 6.93}",91.0,91.0,0.0,1,Er1 Ba2 Cu3 O6.93
5631,[3853],Er1Ba2Cu3O6.935,Er1Ba2Cu3O6.935,"{'Ba': 2.0, 'Cu': 3.0, 'Er': 1.0, 'O': 6.9350000000000005}",88.0,88.0,0.0,1,Er1 Ba2 Cu3 O6.935
5632,"[5027, 5073]",Er1Ba2Cu3O6.94,Er1Ba2Cu3O6.94,"{'Ba': 2.0, 'Cu': 3.0, 'Er': 1.0, 'O': 6.94}",91.5,91.5,0.0,2,Er1 Ba2 Cu3 O6.94
5633,[4860],Er1Ba2Cu3O6.953,Er1Ba2Cu3O6.953,"{'Ba': 2.0, 'Cu': 3.0, 'Er': 1.0, 'O': 6.953}",90.9,90.9,0.0,1,Er1 Ba2 Cu3 O6.953
5634,"[145, 267, 325, 482, 676, 1184, 1515, 1516, 1607, 1683, 1684, 1769, 1770, 3088, 3881, 4046, 5081, 7952, 8145, 8416]",Er1Ba2Cu3O7-Z,Er1Ba2Cu3O7,"{'Ba': 2.0, 'Cu': 3.0, 'Er': 1.0, 'O': 7.0}",93.6,89.245,8.7783526359,20,Er1 Ba2 Cu3 O7
5635,[9287],Y0.9Eu0.1Ba2Cu3O7-z,Y0.9Eu0.1Ba2Cu3O7,"{'Ba': 2.0, 'Cu': 3.0, 'Eu': 0.1, 'O': 7.0, 'Y': 0.9}",92.0,92.0,0.0,1,Y0.9 Eu0.1 Ba2 Cu3 O7
5636,[1815],Y0.6Eu0.4Ba2Cu3O7,Y0.6Eu0.4Ba2Cu3O7,"{'Ba': 2.0, 'Cu': 3.0, 'Eu': 0.4, 'O': 7.0, 'Y': 0.6000000000000001}",92.6,92.6,0.0,1,Y0.6 Eu0.4 Ba2 Cu3 O7
5637,[7298],Eu0.5Pr0.5Ba2Cu3O7,Eu0.5Pr0.5Ba2Cu3O7,"{'Ba': 2.0, 'Cu': 3.0, 'Eu': 0.5, 'O': 7.0, 'Pr': 0.5}",26.7,26.7,0.0,1,Eu0.5 Pr0.5 Ba2 Cu3 O7
5638,[10036],Sm0.5Eu0.5Ba2Cu3O7-z,Sm0.5Eu0.5Ba2Cu3O7,"{'Ba': 2.0, 'Cu': 3.0, 'Eu': 0.5, 'O': 7.0, 'Sm': 0.5}",95.0,95.0,0.0,1,Sm0.5 Eu0.5 Ba2 Cu3 O7
5639,[2621],Eu0.6Pr0.4Ba2Cu3O6.97,Eu0.6Pr0.4Ba2Cu3O6.97,"{'Ba': 2.0, 'Cu': 3.0, 'Eu': 0.6000000000000001, 'O': 6.97, 'Pr': 0.4}",15.0,15.0,0.0,1,Eu0.6 Pr0.4 Ba2 Cu3 O6.97
5640,[7297],Eu0.6Pr0.4Ba2Cu3O7,Eu0.6Pr0.4Ba2Cu3O7,"{'Ba': 2.0, 'Cu': 3.0, 'Eu': 0.6000000000000001, 'O': 7.0, 'Pr': 0.4}",37.8,37.8,0.0,1,Eu0.6 Pr0.4 Ba2 Cu3 O7
5641,[1569],Eu0.65Pr0.35Ba2Cu3O7-Z,Eu0.65Pr0.35Ba2Cu3O7,"{'Ba': 2.0, 'Cu': 3.0, 'Eu': 0.65, 'O': 7.0, 'Pr': 0.35000000000000003}",19.1,19.1,0.0,1,Eu0.65 Pr0.35 Ba2 Cu3 O7
5642,[9941],Eu0.7Pr0.3Ba2Cu3O6.66,Eu0.7Pr0.3Ba2Cu3O6.66,"{'Ba': 2.0, 'Cu': 3.0, 'Eu': 0.7000000000000001, 'O': 6.66, 'Pr': 0.30000000000000004}",41.0,41.0,0.0,1,Eu0.7 Pr0.3 Ba2 Cu3 O6.66
5643,[2620],Eu0.7Pr0.3Ba2Cu3O6.95,Eu0.7Pr0.3Ba2Cu3O6.95,"{'Ba': 2.0, 'Cu': 3.0, 'Eu': 0.7000000000000001, 'O': 6.95, 'Pr': 0.30000000000000004}",38.8,38.8,0.0,1,Eu0.7 Pr0.3 Ba2 Cu3 O6.95
5644,"[1568, 7296]",Eu0.7Pr0.3Ba2Cu3O7-Z,Eu0.7Pr0.3Ba2Cu3O7,"{'Ba': 2.0, 'Cu': 3.0, 'Eu': 0.7000000000000001, 'O': 7.0, 'Pr': 0.30000000000000004}",53.8,44.5,9.3,2,Eu0.7 Pr0.3 Ba2 Cu3 O7
5645,[9940],Eu0.8Pr0.2Ba2Cu3O6.7,Eu0.8Pr0.2Ba2Cu3O6.7,"{'Ba': 2.0, 'Cu': 3.0, 'Eu': 0.8, 'O': 6.7, 'Pr': 0.2}",65.0,65.0,0.0,1,Eu0.8 Pr0.2 Ba2 Cu3 O6.7
5646,[2619],Eu0.8Pr0.2Ba2Cu3O6.97,Eu0.8Pr0.2Ba2Cu3O6.97,"{'Ba': 2.0, 'Cu': 3.0, 'Eu': 0.8, 'O': 6.97, 'Pr': 0.2}",57.9,57.9,0.0,1,Eu0.8 Pr0.2 Ba2 Cu3 O6.97
5647,"[1567, 1899, 6814, 7295, 8603]",Eu0.8Pr0.2Ba2Cu3O7-Z,Eu0.8Pr0.2Ba2Cu3O7,"{'Ba': 2.0, 'Cu': 3.0, 'Eu': 0.8, 'O': 7.0, 'Pr': 0.2}",64.0,57.3,6.3371918071,5,Eu0.8 Pr0.2 Ba2 Cu3 O7
5648,[1816],Y0.2Eu0.8Ba2Cu3O7,Y0.2Eu0.8Ba2Cu3O7,"{'Ba': 2.0, 'Cu': 3.0, 'Eu': 0.8, 'O': 7.0, 'Y': 0.2}",93.8,93.8,0.0,1,Y0.2 Eu0.8 Ba2 Cu3 O7
5649,[9939],Eu0.9Pr0.1Ba2Cu3O6.78,Eu0.9Pr0.1Ba2Cu3O6.78,"{'Ba': 2.0, 'Cu': 3.0, 'Eu': 0.9, 'O': 6.78, 'Pr': 0.1}",83.0,83.0,0.0,1,Eu0.9 Pr0.1 Ba2 Cu3 O6.78
5650,[2618],Eu0.9Pr0.1Ba2Cu3O6.95,Eu0.9Pr0.1Ba2Cu3O6.95,"{'Ba': 2.0, 'Cu': 3.0, 'Eu': 0.9, 'O': 6.95, 'Pr': 0.1}",79.45,79.45,0.0,1,Eu0.9 Pr0.1 Ba2 Cu3 O6.95
5651,"[1566, 7294]",Eu0.9Pr0.1Ba2Cu3O7-Z,Eu0.9Pr0.1Ba2Cu3O7,"{'Ba': 2.0, 'Cu': 3.0, 'Eu': 0.9, 'O': 7.0, 'Pr': 0.1}",77.8,73.05,4.75,2,Eu0.9 Pr0.1 Ba2 Cu3 O7
5652,[341],Eu1Ba2Cu3S1O6,Eu1Ba2Cu3S1O6,"{'Ba': 2.0, 'Cu': 3.0, 'Eu': 1.0, 'O': 6.0, 'S': 1.0}",85.0,85.0,0.0,1,Eu1 Ba2 Cu3 S1 O6
5653,[9212],Eu1Ba2Cu3O6.5,Eu1Ba2Cu3O6.5,"{'Ba': 2.0, 'Cu': 3.0, 'Eu': 1.0, 'O': 6.5}",92.0,92.0,0.0,1,Eu1 Ba2 Cu3 O6.5
5654,[461],Eu1Ba2Cu3O6.76,Eu1Ba2Cu3O6.76,"{'Ba': 2.0, 'Cu': 3.0, 'Eu': 1.0, 'O': 6.76}",77.0,77.0,0.0,1,Eu1 Ba2 Cu3 O6.76
5655,[7741],Eu1Ba2Cu3O6.82,Eu1Ba2Cu3O6.82,"{'Ba': 2.0, 'Cu': 3.0, 'Eu': 1.0, 'O': 6.82}",94.0,94.0,0.0,1,Eu1 Ba2 Cu3 O6.82
5656,[462],Eu1Ba2Cu3O6.88,Eu1Ba2Cu3O6.88,"{'Ba': 2.0, 'Cu': 3.0, 'Eu': 1.0, 'O': 6.88}",94.0,94.0,0.0,1,Eu1 Ba2 Cu3 O6.88
5657,"[1525, 9938]",Eu1Ba2Cu3O6.9,Eu1Ba2Cu3O6.9,"{'Ba': 2.0, 'Cu': 3.0, 'Eu': 1.0, 'O': 6.9}",94.0,91.0,3.0,2,Eu1 Ba2 Cu3 O6.9
5658,[5397],Eu1Ba2Cu3O6.94,Eu1Ba2Cu3O6.94,"{'Ba': 2.0, 'Cu': 3.0, 'Eu': 1.0, 'O': 6.94}",93.6,93.6,0.0,1,Eu1 Ba2 Cu3 O6.94
5659,[2616],Eu1Ba2Cu3O6.97,Eu1Ba2Cu3O6.97,"{'Ba': 2.0, 'Cu': 3.0, 'Eu': 1.0, 'O': 6.97}",94.77,94.77,0.0,1,Eu1 Ba2 Cu3 O6.97
5660,"[296, 321, 340, 692, 724, 1565, 1614, 1678, 1766, 1817, 2844, 7293, 8155, 8448, 10275]",Eu1Ba2Cu3O7-Z,Eu1Ba2Cu3O7,"{'Ba': 2.0, 'Cu': 3.0, 'Eu': 1.0, 'O': 7.0}",95.8,89.7366666667,7.0916492362,15,Eu1 Ba2 Cu3 O7
5661,[2901],Eu1Ba2Cu3O7.01,Eu1Ba2Cu3O7.01,"{'Ba': 2.0, 'Cu': 3.0, 'Eu': 1.0, 'O': 7.01}",90.0,90.0,0.0,1,Eu1 Ba2 Cu3 O7.01
5662,[150],Eu1Ba2Cu3O7.1,Eu1Ba2Cu3O7.1,"{'Ba': 2.0, 'Cu': 3.0, 'Eu': 1.0, 'O': 7.1}",94.9,94.9,0.0,1,Eu1 Ba2 Cu3 O7.1
5663,[7753],Y1Ba2Cu3F0.1O6.7,Y1Ba2Cu3F0.1O6.7,"{'Ba': 2.0, 'Cu': 3.0, 'F': 0.1, 'O': 6.7, 'Y': 1.0}",71.0,71.0,0.0,1,Y1 Ba2 Cu3 F0.1 O6.7
5664,[7750],Y1Ba2Cu3F0.1O7,Y1Ba2Cu3F0.1O7,"{'Ba': 2.0, 'Cu': 3.0, 'F': 0.1, 'O': 7.0, 'Y': 1.0}",91.0,91.0,0.0,1,Y1 Ba2 Cu3 F0.1 O7
5665,[4041],Y1Ba2Cu3F0.15O6.7,Y1Ba2Cu3F0.15O6.7,"{'Ba': 2.0, 'Cu': 3.0, 'F': 0.15, 'O': 6.7, 'Y': 1.0}",89.5,89.5,0.0,1,Y1 Ba2 Cu3 F0.15 O6.7
5666,[7751],Y1Ba2Cu3F0.2O7,Y1Ba2Cu3F0.2O7,"{'Ba': 2.0, 'Cu': 3.0, 'F': 0.2, 'O': 7.0, 'Y': 1.0}",91.0,91.0,0.0,1,Y1 Ba2 Cu3 F0.2 O7
5667,[4042],Y1Ba2Cu3F0.25O6.7,Y1Ba2Cu3F0.25O6.7,"{'Ba': 2.0, 'Cu': 3.0, 'F': 0.25, 'O': 6.7, 'Y': 1.0}",91.0,91.0,0.0,1,Y1 Ba2 Cu3 F0.25 O6.7
5668,[4043],Y1Ba2Cu3F0.29O6.7,Y1Ba2Cu3F0.29O6.7,"{'Ba': 2.0, 'Cu': 3.0, 'F': 0.29, 'O': 6.7, 'Y': 1.0}",91.0,91.0,0.0,1,Y1 Ba2 Cu3 F0.29 O6.7
5669,[4044],Y1Ba2Cu3F0.38O6.7,Y1Ba2Cu3F0.38O6.7,"{'Ba': 2.0, 'Cu': 3.0, 'F': 0.38, 'O': 6.7, 'Y': 1.0}",91.0,91.0,0.0,1,Y1 Ba2 Cu3 F0.38 O6.7
5670,[8163],Y1Ba2Cu3F0.76O6,Y1Ba2Cu3F0.76O6,"{'Ba': 2.0, 'Cu': 3.0, 'F': 0.76, 'O': 6.0, 'Y': 1.0}",35.0,35.0,0.0,1,Y1 Ba2 Cu3 F0.76 O6
5671,[183],Y1Ba2Cu3F0.825O,Y1Ba2Cu3F0.825O,"{'Ba': 2.0, 'Cu': 3.0, 'F': 0.8250000000000001, 'O': 1.0, 'Y': 1.0}",90.5,90.5,0.0,1,Y1 Ba2 Cu3 F0.825 O1
5672,[8164],Y1Ba2Cu3F1.11O6,Y1Ba2Cu3F1.11O6,"{'Ba': 2.0, 'Cu': 3.0, 'F': 1.11, 'O': 6.0, 'Y': 1.0}",45.0,45.0,0.0,1,Y1 Ba2 Cu3 F1.11 O6
5673,[8165],Y1Ba2Cu3F1.26O6,Y1Ba2Cu3F1.26O6,"{'Ba': 2.0, 'Cu': 3.0, 'F': 1.26, 'O': 6.0, 'Y': 1.0}",55.0,55.0,0.0,1,Y1 Ba2 Cu3 F1.26 O6
5674,[8166],Y1Ba2Cu3F1.46O6,Y1Ba2Cu3F1.46O6,"{'Ba': 2.0, 'Cu': 3.0, 'F': 1.46, 'O': 6.0, 'Y': 1.0}",55.0,55.0,0.0,1,Y1 Ba2 Cu3 F1.46 O6
5675,[184],Y1Ba2Cu3F1.65O5.675,Y1Ba2Cu3F1.65O5.675,"{'Ba': 2.0, 'Cu': 3.0, 'F': 1.65, 'O': 5.675, 'Y': 1.0}",90.3,90.3,0.0,1,Y1 Ba2 Cu3 F1.65 O5.675
5676,[3201],Y1Ba2Cu3FeO7-Z,Y1Ba2Cu3FeO7,"{'Ba': 2.0, 'Cu': 3.0, 'Fe': 1.0, 'O': 7.0, 'Y': 1.0}",92.0,92.0,0.0,1,Y1 Ba2 Cu3 Fe1 O7
5677,[4202],Y0.8Gd0.2Ba2Cu3O7-z,Y0.8Gd0.2Ba2Cu3O7,"{'Ba': 2.0, 'Cu': 3.0, 'Gd': 0.2, 'O': 7.0, 'Y': 0.8}",92.0,92.0,0.0,1,Y0.8 Gd0.2 Ba2 Cu3 O7
5678,[4203],Y0.6Gd0.4Ba2Cu3O7-z,Y0.6Gd0.4Ba2Cu3O7,"{'Ba': 2.0, 'Cu': 3.0, 'Gd': 0.4, 'O': 7.0, 'Y': 0.6000000000000001}",92.0,92.0,0.0,1,Y0.6 Gd0.4 Ba2 Cu3 O7
5679,[2653],Gd0.6Pr0.4Ba2Cu3O6.95,Gd0.6Pr0.4Ba2Cu3O6.95,"{'Ba': 2.0, 'Cu': 3.0, 'Gd': 0.6000000000000001, 'O': 6.95, 'Pr': 0.4}",11.2,11.2,0.0,1,Gd0.6 Pr0.4 Ba2 Cu3 O6.95
5680,"[1891, 3880]",Gd0.6Pr0.4Ba2Cu3O7-Z,Gd0.6Pr0.4Ba2Cu3O7,"{'Ba': 2.0, 'Cu': 3.0, 'Gd': 0.6000000000000001, 'O': 7.0, 'Pr': 0.4}",20.9,18.45,2.45,2,Gd0.6 Pr0.4 Ba2 Cu3 O7
5681,[4204],Y0.4Gd0.6Ba2Cu3O7-z,Y0.4Gd0.6Ba2Cu3O7,"{'Ba': 2.0, 'Cu': 3.0, 'Gd': 0.6000000000000001, 'O': 7.0, 'Y': 0.4}",92.0,92.0,0.0,1,Y0.4 Gd0.6 Ba2 Cu3 O7
5682,"[1890, 1912]",Gd0.65Pr0.35Ba2Cu3O7-Z,Gd0.65Pr0.35Ba2Cu3O7,"{'Ba': 2.0, 'Cu': 3.0, 'Gd': 0.65, 'O': 7.0, 'Pr': 0.35000000000000003}",30.4,22.95,7.45,2,Gd0.65 Pr0.35 Ba2 Cu3 O7
5683,[2652],Gd0.7Pr0.3Ba2Cu3O6.95,Gd0.7Pr0.3Ba2Cu3O6.95,"{'Ba': 2.0, 'Cu': 3.0, 'Gd': 0.7000000000000001, 'O': 6.95, 'Pr': 0.30000000000000004}",30.6,30.6,0.0,1,Gd0.7 Pr0.3 Ba2 Cu3 O6.95
5684,"[1889, 1911, 3879]",Gd0.7Pr0.3Ba2Cu3O7-Z,Gd0.7Pr0.3Ba2Cu3O7,"{'Ba': 2.0, 'Cu': 3.0, 'Gd': 0.7000000000000001, 'O': 7.0, 'Pr': 0.30000000000000004}",43.2,39.2666666667,3.355923453,3,Gd0.7 Pr0.3 Ba2 Cu3 O7
5685,[1888],Gd0.75Pr0.25Ba2Cu3O7-Z,Gd0.75Pr0.25Ba2Cu3O7,"{'Ba': 2.0, 'Cu': 3.0, 'Gd': 0.75, 'O': 7.0, 'Pr': 0.25}",51.0,51.0,0.0,1,Gd0.75 Pr0.25 Ba2 Cu3 O7
5686,[7101],Gd0.8Hf0.2Ba2Cu3O6.79,Gd0.8Hf0.2Ba2Cu3O6.79,"{'Ba': 2.0, 'Cu': 3.0, 'Gd': 0.8, 'Hf': 0.2, 'O': 6.79}",79.5,79.5,0.0,1,Gd0.8 Hf0.2 Ba2 Cu3 O6.79
5687,[6821],Gd0.8Mo0.2Ba2Cu3O6.807,Gd0.8Mo0.2Ba2Cu3O6.807,"{'Ba': 2.0, 'Cu': 3.0, 'Gd': 0.8, 'Mo': 0.2, 'O': 6.807}",52.5,52.5,0.0,1,Gd0.8 Mo0.2 Ba2 Cu3 O6.807
5688,[2651],Gd0.8Pr0.2Ba2Cu3O6.95,Gd0.8Pr0.2Ba2Cu3O6.95,"{'Ba': 2.0, 'Cu': 3.0, 'Gd': 0.8, 'O': 6.95, 'Pr': 0.2}",53.1,53.1,0.0,1,Gd0.8 Pr0.2 Ba2 Cu3 O6.95
5689,"[1887, 1900, 1910, 3878, 6813, 8602]",Gd0.8Pr0.2Ba2Cu3O7-Z,Gd0.8Pr0.2Ba2Cu3O7,"{'Ba': 2.0, 'Cu': 3.0, 'Gd': 0.8, 'O': 7.0, 'Pr': 0.2}",67.0,60.6666666667,4.4742472986,6,Gd0.8 Pr0.2 Ba2 Cu3 O7
5690,[4205],Y0.2Gd0.8Ba2Cu3O7-z,Y0.2Gd0.8Ba2Cu3O7,"{'Ba': 2.0, 'Cu': 3.0, 'Gd': 0.8, 'O': 7.0, 'Y': 0.2}",92.0,92.0,0.0,1,Y0.2 Gd0.8 Ba2 Cu3 O7
5691,[7100],Gd0.85Hf0.15Ba2Cu3O6.84,Gd0.85Hf0.15Ba2Cu3O6.84,"{'Ba': 2.0, 'Cu': 3.0, 'Gd': 0.85, 'Hf': 0.15, 'O': 6.84}",81.8,81.8,0.0,1,Gd0.85 Hf0.15 Ba2 Cu3 O6.84
5692,[6820],Gd0.85Mo0.15Ba2Cu3O6.855,Gd0.85Mo0.15Ba2Cu3O6.855,"{'Ba': 2.0, 'Cu': 3.0, 'Gd': 0.85, 'Mo': 0.15, 'O': 6.855}",59.2,59.2,0.0,1,Gd0.85 Mo0.15 Ba2 Cu3 O6.855
5693,"[1886, 3877, 10086]",Gd0.85Pr0.15Ba2Cu3O7-Z,Gd0.85Pr0.15Ba2Cu3O7,"{'Ba': 2.0, 'Cu': 3.0, 'Gd': 0.85, 'O': 7.0, 'Pr': 0.15}",67.9,61.9666666667,5.3168495266,3,Gd0.85 Pr0.15 Ba2 Cu3 O7
5694,[7099],Gd0.9Hf0.1Ba2Cu3O6.88,Gd0.9Hf0.1Ba2Cu3O6.88,"{'Ba': 2.0, 'Cu': 3.0, 'Gd': 0.9, 'Hf': 0.1, 'O': 6.88}",84.2,84.2,0.0,1,Gd0.9 Hf0.1 Ba2 Cu3 O6.88
5695,[6819],Gd0.9Mo0.1Ba2Cu3O6.907,Gd0.9Mo0.1Ba2Cu3O6.907,"{'Ba': 2.0, 'Cu': 3.0, 'Gd': 0.9, 'Mo': 0.1, 'O': 6.907}",65.9,65.9,0.0,1,Gd0.9 Mo0.1 Ba2 Cu3 O6.907
5696,[2650],Gd0.9Pr0.1Ba2Cu3O6.95,Gd0.9Pr0.1Ba2Cu3O6.95,"{'Ba': 2.0, 'Cu': 3.0, 'Gd': 0.9, 'O': 6.95, 'Pr': 0.1}",74.3,74.3,0.0,1,Gd0.9 Pr0.1 Ba2 Cu3 O6.95
5697,"[1885, 1909, 10080]",Gd0.9Pr0.1Ba2Cu3O7-Z,Gd0.9Pr0.1Ba2Cu3O7,"{'Ba': 2.0, 'Cu': 3.0, 'Gd': 0.9, 'O': 7.0, 'Pr': 0.1}",76.0,72.2,3.7478882943,3,Gd0.9 Pr0.1 Ba2 Cu3 O7
5698,[103],Y0.1Gd0.9Ba2Cu3O8-X,Y0.1Gd0.9Ba2Cu3O8,"{'Ba': 2.0, 'Cu': 3.0, 'Gd': 0.9, 'O': 8.0, 'Y': 0.1}",90.5,90.5,0.0,1,Y0.1 Gd0.9 Ba2 Cu3 O8
5699,[3876],Gd0.922Pr0.078Ba2Cu3O7,Gd0.922Pr0.078Ba2Cu3O7,"{'Ba': 2.0, 'Cu': 3.0, 'Gd': 0.922, 'O': 7.0, 'Pr': 0.078}",84.0,84.0,0.0,1,Gd0.922 Pr0.078 Ba2 Cu3 O7
5700,[7098],Gd0.95Hf0.05Ba2Cu3O6.91,Gd0.95Hf0.05Ba2Cu3O6.91,"{'Ba': 2.0, 'Cu': 3.0, 'Gd': 0.9500000000000001, 'Hf': 0.05, 'O': 6.91}",86.9,86.9,0.0,1,Gd0.95 Hf0.05 Ba2 Cu3 O6.91
5701,[6818],Gd0.95Mo0.05Ba2Cu3O6.948,Gd0.95Mo0.05Ba2Cu3O6.948,"{'Ba': 2.0, 'Cu': 3.0, 'Gd': 0.9500000000000001, 'Mo': 0.05, 'O': 6.948}",82.4,82.4,0.0,1,Gd0.95 Mo0.05 Ba2 Cu3 O6.948
5702,"[1884, 22576]",Gd0.95Pr0.05Ba2Cu3O7-Z,Gd0.95Pr0.05Ba2Cu3O7,"{'Ba': 2.0, 'Cu': 3.0, 'Gd': 0.9500000000000001, 'O': 7.0, 'Pr': 0.05}",88.0,87.25,0.75,2,Gd0.95 Pr0.05 Ba2 Cu3 O7
5703,[3875],Gd0.97Pr0.03Ba2Cu3O7,Gd0.97Pr0.03Ba2Cu3O7,"{'Ba': 2.0, 'Cu': 3.0, 'Gd': 0.97, 'O': 7.0, 'Pr': 0.03}",93.1,93.1,0.0,1,Gd0.97 Pr0.03 Ba2 Cu3 O7
5704,[4636],Gd1Ba2Cu3H0.12O6.89,Gd1Ba2Cu3H0.12O6.89,"{'Ba': 2.0, 'Cu': 3.0, 'Gd': 1.0, 'H': 0.12, 'O': 6.89}",84.0,84.0,0.0,1,Gd1 Ba2 Cu3 H0.12 O6.89
5705,[4637],Gd1Ba2Cu3H0.43O6.89,Gd1Ba2Cu3H0.43O6.89,"{'Ba': 2.0, 'Cu': 3.0, 'Gd': 1.0, 'H': 0.43, 'O': 6.89}",82.0,82.0,0.0,1,Gd1 Ba2 Cu3 H0.43 O6.89
5706,[4638],Gd1Ba2Cu3H1.32O6.89,Gd1Ba2Cu3H1.32O6.89,"{'Ba': 2.0, 'Cu': 3.0, 'Gd': 1.0, 'H': 1.32, 'O': 6.89}",78.2,78.2,0.0,1,Gd1 Ba2 Cu3 H1.32 O6.89
5707,[343],Gd1Ba2Cu3S1O6,Gd1Ba2Cu3S1O6,"{'Ba': 2.0, 'Cu': 3.0, 'Gd': 1.0, 'O': 6.0, 'S': 1.0}",92.0,92.0,0.0,1,Gd1 Ba2 Cu3 S1 O6
5708,[10579],Gd1Ba2Cu3O6.758,Gd1Ba2Cu3O6.758,"{'Ba': 2.0, 'Cu': 3.0, 'Gd': 1.0, 'O': 6.758}",92.0,92.0,0.0,1,Gd1 Ba2 Cu3 O6.758
5709,[1767],Gd1Ba2Cu3O6.8,Gd1Ba2Cu3O6.8,"{'Ba': 2.0, 'Cu': 3.0, 'Gd': 1.0, 'O': 6.8}",81.0,81.0,0.0,1,Gd1 Ba2 Cu3 O6.8
5710,[4635],Gd1Ba2Cu3O6.89,Gd1Ba2Cu3O6.89,"{'Ba': 2.0, 'Cu': 3.0, 'Gd': 1.0, 'O': 6.89}",92.9,92.9,0.0,1,Gd1 Ba2 Cu3 O6.89
5711,[356],Gd1Ba2Cu3O6.9,Gd1Ba2Cu3O6.9,"{'Ba': 2.0, 'Cu': 3.0, 'Gd': 1.0, 'O': 6.9}",92.0,92.0,0.0,1,Gd1 Ba2 Cu3 O6.9
5712,[7097],Gd1Ba2Cu3O6.94,Gd1Ba2Cu3O6.94,"{'Ba': 2.0, 'Cu': 3.0, 'Gd': 1.0, 'O': 6.94}",90.8,90.8,0.0,1,Gd1 Ba2 Cu3 O6.94
5713,[2649],Gd1Ba2Cu3O6.95,Gd1Ba2Cu3O6.95,"{'Ba': 2.0, 'Cu': 3.0, 'Gd': 1.0, 'O': 6.95}",90.0,90.0,0.0,1,Gd1 Ba2 Cu3 O6.95
5714,[6817],Gd1Ba2Cu3O6.969,Gd1Ba2Cu3O6.969,"{'Ba': 2.0, 'Cu': 3.0, 'Gd': 1.0, 'O': 6.969}",91.0,91.0,0.0,1,Gd1 Ba2 Cu3 O6.969
5715,[10276],Gd1Ba2Cu3O6.98,Gd1Ba2Cu3O6.98,"{'Ba': 2.0, 'Cu': 3.0, 'Gd': 1.0, 'O': 6.98}",94.2,94.2,0.0,1,Gd1 Ba2 Cu3 O6.98
5716,"[616, 10840]",Gd1Ba2Cu3O6.99,Gd1Ba2Cu3O6.99,"{'Ba': 2.0, 'Cu': 3.0, 'Gd': 1.0, 'O': 6.99}",94.0,92.45,1.55,2,Gd1 Ba2 Cu3 O6.99