,sc_id,supercon_formula,cleaned_formula,material_dict,highest_Tc,average_Tc,std_Tc,entry_count,composition
6217,"[273, 327, 1609, 1686, 7711, 8071, 8410, 10731]",Yb1Ba2Cu3O7-Z,Yb1Ba2Cu3O7,"{'Ba': 2.0, 'Cu': 3.0, 'O': 7.0, 'Yb': 1.0}",96.1,90.7375,2.3242942477,8,Yb1 Ba2 Cu3 O7
6218,[688],Y0.65Pr0.35Ba2Cu3O7.01,Y0.65Pr0.35Ba2Cu3O7.01,"{'Ba': 2.0, 'Cu': 3.0, 'O': 7.01, 'Pr': 0.35000000000000003, 'Y': 0.65}",44.5,44.5,0.0,1,Y0.65 Pr0.35 Ba2 Cu3 O7.01
6219,[690],Y0.55Pr0.45Ba2Cu3O7.01,Y0.55Pr0.45Ba2Cu3O7.01,"{'Ba': 2.0, 'Cu': 3.0, 'O': 7.01, 'Pr': 0.45, 'Y': 0.55}",29.2,29.2,0.0,1,Y0.55 Pr0.45 Ba2 Cu3 O7.01
6220,[2898],Sm1Ba2Cu3O7.01,Sm1Ba2Cu3O7.01,"{'Ba': 2.0, 'Cu': 3.0, 'O': 7.01, 'Sm': 1.0}",87.0,87.0,0.0,1,Sm1 Ba2 Cu3 O7.01
6221,[3604],Y1Ba2Cu3O7.01,Y1Ba2Cu3O7.01,"{'Ba': 2.0, 'Cu': 3.0, 'O': 7.01, 'Y': 1.0}",89.5,89.5,0.0,1,Y1 Ba2 Cu3 O7.01
6222,[5829],Y0.8Pr0.2Ba2Cu3O7.1,Y0.8Pr0.2Ba2Cu3O7.1,"{'Ba': 2.0, 'Cu': 3.0, 'O': 7.1, 'Pr': 0.2, 'Y': 0.8}",57.6,57.6,0.0,1,Y0.8 Pr0.2 Ba2 Cu3 O7.1
6223,"[695, 750]",Y1Ba2Cu3O7.1,Y1Ba2Cu3O7.1,"{'Ba': 2.0, 'Cu': 3.0, 'O': 7.1, 'Y': 1.0}",92.0,91.65,0.35000000000000003,2,Y1 Ba2 Cu3 O7.1
6224,[160],Sm1Ba2Cu3O7.11,Sm1Ba2Cu3O7.11,"{'Ba': 2.0, 'Cu': 3.0, 'O': 7.11, 'Sm': 1.0}",93.5,93.5,0.0,1,Sm1 Ba2 Cu3 O7.11
6225,[345],Y1Ba2Cu3S0.03O7.12,Y1Ba2Cu3S0.03O7.12,"{'Ba': 2.0, 'Cu': 3.0, 'O': 7.12, 'S': 0.03, 'Y': 1.0}",90.0,90.0,0.0,1,Y1 Ba2 Cu3 S0.03 O7.12
6226,[8261],Y1Ba2Cu3O7.19,Y1Ba2Cu3O7.19,"{'Ba': 2.0, 'Cu': 3.0, 'O': 7.19, 'Y': 1.0}",89.0,89.0,0.0,1,Y1 Ba2 Cu3 O7.19
6227,[5830],Y0.8Pr0.2Ba2Cu3O7.2,Y0.8Pr0.2Ba2Cu3O7.2,"{'Ba': 2.0, 'Cu': 3.0, 'O': 7.2, 'Pr': 0.2, 'Y': 0.8}",63.3,63.3,0.0,1,Y0.8 Pr0.2 Ba2 Cu3 O7.2
6228,[346],Y1Ba2Cu3S0.06O7.23,Y1Ba2Cu3S0.06O7.23,"{'Ba': 2.0, 'Cu': 3.0, 'O': 7.23, 'S': 0.06, 'Y': 1.0}",89.0,89.0,0.0,1,Y1 Ba2 Cu3 S0.06 O7.23
6229,[347],Y1Ba2Cu3S0.12O7.28,Y1Ba2Cu3S0.12O7.28,"{'Ba': 2.0, 'Cu': 3.0, 'O': 7.28, 'S': 0.12, 'Y': 1.0}",89.0,89.0,0.0,1,Y1 Ba2 Cu3 S0.12 O7.28
6230,[5831],Y0.8Pr0.2Ba2Cu3O7.3,Y0.8Pr0.2Ba2Cu3O7.3,"{'Ba': 2.0, 'Cu': 3.0, 'O': 7.3, 'Pr': 0.2, 'Y': 0.8}",62.6,62.6,0.0,1,Y0.8 Pr0.2 Ba2 Cu3 O7.3
6231,[5832],Y0.8Pr0.2Ba2Cu3O7.4,Y0.8Pr0.2Ba2Cu3O7.4,"{'Ba': 2.0, 'Cu': 3.0, 'O': 7.4, 'Pr': 0.2, 'Y': 0.8}",59.8,59.8,0.0,1,Y0.8 Pr0.2 Ba2 Cu3 O7.4
6232,[5833],Y0.8Pr0.2Ba2Cu3O7.5,Y0.8Pr0.2Ba2Cu3O7.5,"{'Ba': 2.0, 'Cu': 3.0, 'O': 7.5, 'Pr': 0.2, 'Y': 0.8}",62.9,62.9,0.0,1,Y0.8 Pr0.2 Ba2 Cu3 O7.5
6233,[5834],Y0.8Pr0.2Ba2Cu3O7.55,Y0.8Pr0.2Ba2Cu3O7.55,"{'Ba': 2.0, 'Cu': 3.0, 'O': 7.55, 'Pr': 0.2, 'Y': 0.8}",68.3,68.3,0.0,1,Y0.8 Pr0.2 Ba2 Cu3 O7.55
6234,[5835],Y0.8Pr0.2Ba2Cu3O7.6,Y0.8Pr0.2Ba2Cu3O7.6,"{'Ba': 2.0, 'Cu': 3.0, 'O': 7.6, 'Pr': 0.2, 'Y': 0.8}",66.5,66.5,0.0,1,Y0.8 Pr0.2 Ba2 Cu3 O7.6
6235,[5836],Y0.8Pr0.2Ba2Cu3O7.65,Y0.8Pr0.2Ba2Cu3O7.65,"{'Ba': 2.0, 'Cu': 3.0, 'O': 7.65, 'Pr': 0.2, 'Y': 0.8}",66.5,66.5,0.0,1,Y0.8 Pr0.2 Ba2 Cu3 O7.65
6236,[5837],Y0.8Pr0.2Ba2Cu3O7.67,Y0.8Pr0.2Ba2Cu3O7.67,"{'Ba': 2.0, 'Cu': 3.0, 'O': 7.67, 'Pr': 0.2, 'Y': 0.8}",67.5,67.5,0.0,1,Y0.8 Pr0.2 Ba2 Cu3 O7.67
6237,[5838],Y0.8Pr0.2Ba2Cu3O7.79,Y0.8Pr0.2Ba2Cu3O7.79,"{'Ba': 2.0, 'Cu': 3.0, 'O': 7.79, 'Pr': 0.2, 'Y': 0.8}",65.4,65.4,0.0,1,Y0.8 Pr0.2 Ba2 Cu3 O7.79
6238,"[5875, 24196]",Y1Ba2Cu3O8,Y1Ba2Cu3O8,"{'Ba': 2.0, 'Cu': 3.0, 'O': 8.0, 'Y': 1.0}",93.0,86.5,6.5,2,Y1 Ba2 Cu3 O8
6239,[5839],Y0.8Pr0.2Ba2Cu3O8.04,Y0.8Pr0.2Ba2Cu3O8.04,"{'Ba': 2.0, 'Cu': 3.0, 'O': 8.04, 'Pr': 0.2, 'Y': 0.8}",64.4,64.4,0.0,1,Y0.8 Pr0.2 Ba2 Cu3 O8.04
6240,[5840],Y0.8Pr0.2Ba2Cu3O8.06,Y0.8Pr0.2Ba2Cu3O8.06,"{'Ba': 2.0, 'Cu': 3.0, 'O': 8.06, 'Pr': 0.2, 'Y': 0.8}",65.8,65.8,0.0,1,Y0.8 Pr0.2 Ba2 Cu3 O8.06
6241,"[119, 149, 1271, 1307, 1310, 2205, 2248]",Y1Ba2Cu3O9-X,Y1Ba2Cu3O9,"{'Ba': 2.0, 'Cu': 3.0, 'O': 9.0, 'Y': 1.0}",93.0,90.8571428571,1.3552618544000001,7,Y1 Ba2 Cu3 O9
6242,[6308],Y1Ba2Cu3O6050,Y1Ba2Cu3O6050,"{'Ba': 2.0, 'Cu': 3.0, 'O': 6050.0, 'Y': 1.0}",22.0,22.0,0.0,1,Y1 Ba2 Cu3 O6050
6243,[4762],Y1Ba2Cu3.5O7.5-z,Y1Ba2Cu3.5O7.5,"{'Ba': 2.0, 'Cu': 3.5, 'O': 7.5, 'Y': 1.0}",91.0,91.0,0.0,1,Y1 Ba2 Cu3.5 O7.5
6244,[3769],Y1Ba2Cu2.94Cu0.6O7,Y1Ba2Cu2.94Cu0.6O7,"{'Ba': 2.0, 'Cu': 3.54, 'O': 7.0, 'Y': 1.0}",89.1,89.1,0.0,1,Y1 Ba2 Cu3.54 O7
6245,[1826],Y1Ba2Cu3.7Zn0.3O8,Y1Ba2Cu3.7Zn0.3O8,"{'Ba': 2.0, 'Cu': 3.7, 'O': 8.0, 'Y': 1.0, 'Zn': 0.30000000000000004}",22.5,22.5,0.0,1,Y1 Ba2 Cu3.7 Zn0.3 O8
6246,[4241],Y1Ba2Cu3.8Fe0.2O8,Y1Ba2Cu3.8Fe0.2O8,"{'Ba': 2.0, 'Cu': 3.8, 'Fe': 0.2, 'O': 8.0, 'Y': 1.0}",64.0,64.0,0.0,1,Y1 Ba2 Cu3.8 Fe0.2 O8
6247,[4264],Y1Ba2Cu3.8Ga0.2O8,Y1Ba2Cu3.8Ga0.2O8,"{'Ba': 2.0, 'Cu': 3.8, 'Ga': 0.2, 'O': 8.0, 'Y': 1.0}",70.25,70.25,0.0,1,Y1 Ba2 Cu3.8 Ga0.2 O8
6248,[5107],Y1Ba2Cu3.8Ni0.2O8,Y1Ba2Cu3.8Ni0.2O8,"{'Ba': 2.0, 'Cu': 3.8, 'Ni': 0.2, 'O': 8.0, 'Y': 1.0}",21.0,21.0,0.0,1,Y1 Ba2 Cu3.8 Ni0.2 O8
6249,[4258],Y1Ba2Cu3.8Zn0.2O8,Y1Ba2Cu3.8Zn0.2O8,"{'Ba': 2.0, 'Cu': 3.8, 'O': 8.0, 'Y': 1.0, 'Zn': 0.2}",30.5,30.5,0.0,1,Y1 Ba2 Cu3.8 Zn0.2 O8
6250,"[3766, 4240, 7230, 7244]",Y1Ba2Cu3.84Fe0.16O8,Y1Ba2Cu3.84Fe0.16O8,"{'Ba': 2.0, 'Cu': 3.84, 'Fe': 0.16, 'O': 8.0, 'Y': 1.0}",61.0,50.35,10.6783659799,4,Y1 Ba2 Cu3.84 Fe0.16 O8
6251,[4263],Y1Ba2Cu3.84Ga0.16O8,Y1Ba2Cu3.84Ga0.16O8,"{'Ba': 2.0, 'Cu': 3.84, 'Ga': 0.16, 'O': 8.0, 'Y': 1.0}",71.25,71.25,0.0,1,Y1 Ba2 Cu3.84 Ga0.16 O8
6252,[4257],Y1Ba2Cu3.84Zn0.16O8,Y1Ba2Cu3.84Zn0.16O8,"{'Ba': 2.0, 'Cu': 3.84, 'O': 8.0, 'Y': 1.0, 'Zn': 0.16}",31.5,31.5,0.0,1,Y1 Ba2 Cu3.84 Zn0.16 O8
6253,[1273],Y1Ba2Cu3.85O6.85,Y1Ba2Cu3.85O6.85,"{'Ba': 2.0, 'Cu': 3.85, 'O': 6.85, 'Y': 1.0}",93.0,93.0,0.0,1,Y1 Ba2 Cu3.85 O6.85
6254,"[4239, 7229, 7243]",Y1Ba2Cu3.88Fe0.12O8,Y1Ba2Cu3.88Fe0.12O8,"{'Ba': 2.0, 'Cu': 3.88, 'Fe': 0.12, 'O': 8.0, 'Y': 1.0}",65.0,59.35,7.9903066274,3,Y1 Ba2 Cu3.88 Fe0.12 O8
6255,[4262],Y1Ba2Cu3.88Ga0.12O8,Y1Ba2Cu3.88Ga0.12O8,"{'Ba': 2.0, 'Cu': 3.88, 'Ga': 0.12, 'O': 8.0, 'Y': 1.0}",73.5,73.5,0.0,1,Y1 Ba2 Cu3.88 Ga0.12 O8
6256,"[4252, 21533]",Y1Ba2Cu3.88Ni0.12O8,Y1Ba2Cu3.88Ni0.12O8,"{'Ba': 2.0, 'Cu': 3.88, 'Ni': 0.12, 'O': 8.0, 'Y': 1.0}",50.0,39.25,10.75,2,Y1 Ba2 Cu3.88 Ni0.12 O8
6257,"[1825, 4256]",Y1Ba2Cu3.88Zn0.12O8,Y1Ba2Cu3.88Zn0.12O8,"{'Ba': 2.0, 'Cu': 3.88, 'O': 8.0, 'Y': 1.0, 'Zn': 0.12}",34.5,30.1,4.4,2,Y1 Ba2 Cu3.88 Zn0.12 O8
6258,"[1786, 6058]",Y1Ba2Cu3.9Fe0.1O8+Z,Y1Ba2Cu3.9Fe0.1O8,"{'Ba': 2.0, 'Cu': 3.9, 'Fe': 0.1, 'O': 8.0, 'Y': 1.0}",26.0,18.0,8.0,2,Y1 Ba2 Cu3.9 Fe0.1 O8
6259,[5106],Y1Ba2Cu3.9Ni0.1O8,Y1Ba2Cu3.9Ni0.1O8,"{'Ba': 2.0, 'Cu': 3.9, 'Ni': 0.1, 'O': 8.0, 'Y': 1.0}",52.6,52.6,0.0,1,Y1 Ba2 Cu3.9 Ni0.1 O8
6260,"[1829, 4857, 5114, 8007, 8171]",Y1Ba2Cu3.9Zn0.1O8,Y1Ba2Cu3.9Zn0.1O8,"{'Ba': 2.0, 'Cu': 3.9, 'O': 8.0, 'Y': 1.0, 'Zn': 0.1}",25.3,18.66,5.753816125,5,Y1 Ba2 Cu3.9 Zn0.1 O8
6261,"[2958, 4238, 7228, 7242]",Y1Ba2Cu3.92Fe0.08O8,Y1Ba2Cu3.92Fe0.08O8,"{'Ba': 2.0, 'Cu': 3.92, 'Fe': 0.08, 'O': 8.0, 'Y': 1.0}",70.0,62.725,8.104127035,4,Y1 Ba2 Cu3.92 Fe0.08 O8
6262,[4261],Y1Ba2Cu3.92Ga0.08O8,Y1Ba2Cu3.92Ga0.08O8,"{'Ba': 2.0, 'Cu': 3.92, 'Ga': 0.08, 'O': 8.0, 'Y': 1.0}",74.5,74.5,0.0,1,Y1 Ba2 Cu3.92 Ga0.08 O8
6263,[10309],Y1Ba2Cu3.92Mn0.08O8,Y1Ba2Cu3.92Mn0.08O8,"{'Ba': 2.0, 'Cu': 3.92, 'Mn': 0.08, 'O': 8.0, 'Y': 1.0}",41.6,41.6,0.0,1,Y1 Ba2 Cu3.92 Mn0.08 O8
6264,"[3760, 4010, 4251, 5105, 9459, 21532]",Y1Ba2Cu3.92Ni0.08O8,Y1Ba2Cu3.92Ni0.08O8,"{'Ba': 2.0, 'Cu': 3.92, 'Ni': 0.08, 'O': 8.0, 'Y': 1.0}",55.1,34.2916666667,15.9704001376,6,Y1 Ba2 Cu3.92 Ni0.08 O8
6265,"[1824, 3763, 4255, 4856, 5113]",Y1Ba2Cu3.92Zn0.08O8,Y1Ba2Cu3.92Zn0.08O8,"{'Ba': 2.0, 'Cu': 3.92, 'O': 8.0, 'Y': 1.0, 'Zn': 0.08}",49.0,38.06,6.8930689827,5,Y1 Ba2 Cu3.92 Zn0.08 O8
6266,[8170],Y1Ba2Cu3.924Zn0.076O8,Y1Ba2Cu3.924Zn0.076O8,"{'Ba': 2.0, 'Cu': 3.924, 'O': 8.0, 'Y': 1.0, 'Zn': 0.076}",30.1,30.1,0.0,1,Y1 Ba2 Cu3.924 Zn0.076 O8
6267,[10596],Y0.8Pr0.2Ba2Cu3.925Fe0.075O8,Y0.8Pr0.2Ba2Cu3.925Fe0.075O8,"{'Ba': 2.0, 'Cu': 3.925, 'Fe': 0.075, 'O': 8.0, 'Pr': 0.2, 'Y': 0.8}",10.0,10.0,0.0,1,Y0.8 Pr0.2 Ba2 Cu3.925 Fe0.075 O8
6268,"[2782, 6057]",Y1Ba2Cu3.925Fe0.075O8,Y1Ba2Cu3.925Fe0.075O8,"{'Ba': 2.0, 'Cu': 3.925, 'Fe': 0.075, 'O': 8.0, 'Y': 1.0}",44.2,39.6,4.6,2,Y1 Ba2 Cu3.925 Fe0.075 O8
6269,[8934],Y1Ba2Cu3.925Zn0.075O8,Y1Ba2Cu3.925Zn0.075O8,"{'Ba': 2.0, 'Cu': 3.925, 'O': 8.0, 'Y': 1.0, 'Zn': 0.075}",25.0,25.0,0.0,1,Y1 Ba2 Cu3.925 Zn0.075 O8
6270,[8006],Y1Ba2Cu3.928Zn0.072O8,Y1Ba2Cu3.928Zn0.072O8,"{'Ba': 2.0, 'Cu': 3.928, 'O': 8.0, 'Y': 1.0, 'Zn': 0.07200000000000001}",31.0,31.0,0.0,1,Y1 Ba2 Cu3.928 Zn0.072 O8
6271,[5112],Y1Ba2Cu3.938Zn0.062O8,Y1Ba2Cu3.938Zn0.062O8,"{'Ba': 2.0, 'Cu': 3.938, 'O': 8.0, 'Y': 1.0, 'Zn': 0.062}",47.0,47.0,0.0,1,Y1 Ba2 Cu3.938 Zn0.062 O8
6272,[5104],Y1Ba2Cu3.939Ni0.061O8,Y1Ba2Cu3.939Ni0.061O8,"{'Ba': 2.0, 'Cu': 3.939, 'Ni': 0.061, 'O': 8.0, 'Y': 1.0}",63.5,63.5,0.0,1,Y1 Ba2 Cu3.939 Ni0.061 O8
6273,[1823],Y1Ba2Cu3.94Zn0.06O8,Y1Ba2Cu3.94Zn0.06O8,"{'Ba': 2.0, 'Cu': 3.94, 'O': 8.0, 'Y': 1.0, 'Zn': 0.06}",39.6,39.6,0.0,1,Y1 Ba2 Cu3.94 Zn0.06 O8
6274,[10595],Y0.8Pr0.2Ba2Cu3.95Fe0.05O8,Y0.8Pr0.2Ba2Cu3.95Fe0.05O8,"{'Ba': 2.0, 'Cu': 3.95, 'Fe': 0.05, 'O': 8.0, 'Pr': 0.2, 'Y': 0.8}",33.0,33.0,0.0,1,Y0.8 Pr0.2 Ba2 Cu3.95 Fe0.05 O8
6275,[6056],Y1Ba2Cu3.95Fe0.05O8+Z,Y1Ba2Cu3.95Fe0.05O8,"{'Ba': 2.0, 'Cu': 3.95, 'Fe': 0.05, 'O': 8.0, 'Y': 1.0}",51.0,51.0,0.0,1,Y1 Ba2 Cu3.95 Fe0.05 O8
6276,"[8005, 8169]",Y1Ba2Cu3.95Zn0.05O8,Y1Ba2Cu3.95Zn0.05O8,"{'Ba': 2.0, 'Cu': 3.95, 'O': 8.0, 'Y': 1.0, 'Zn': 0.05}",47.5,47.25,0.25,2,Y1 Ba2 Cu3.95 Zn0.05 O8
6277,[4854],Y1Ba2Cu3.956Zn0.044O8,Y1Ba2Cu3.956Zn0.044O8,"{'Ba': 2.0, 'Cu': 3.956, 'O': 8.0, 'Y': 1.0, 'Zn': 0.044}",56.8,56.8,0.0,1,Y1 Ba2 Cu3.956 Zn0.044 O8
6278,"[1785, 2957, 4237, 7227, 7241, 7896]",Y1Ba2Cu3.96Fe0.04O8+Z,Y1Ba2Cu3.96Fe0.04O8,"{'Ba': 2.0, 'Cu': 3.96, 'Fe': 0.04, 'O': 8.0, 'Y': 1.0}",73.0,65.5583333333,5.7496678648,6,Y1 Ba2 Cu3.96 Fe0.04 O8
6279,[4260],Y1Ba2Cu3.96Ga0.04O8,Y1Ba2Cu3.96Ga0.04O8,"{'Ba': 2.0, 'Cu': 3.96, 'Ga': 0.04, 'O': 8.0, 'Y': 1.0}",77.5,77.5,0.0,1,Y1 Ba2 Cu3.96 Ga0.04 O8
6280,[10308],Y1Ba2Cu3.96Mn0.04O8,Y1Ba2Cu3.96Mn0.04O8,"{'Ba': 2.0, 'Cu': 3.96, 'Mn': 0.04, 'O': 8.0, 'Y': 1.0}",62.8,62.8,0.0,1,Y1 Ba2 Cu3.96 Mn0.04 O8
6281,"[3759, 4009, 4250, 5103, 6759, 9458, 21531]",Y1Ba2Cu3.96Ni0.04O8,Y1Ba2Cu3.96Ni0.04O8,"{'Ba': 2.0, 'Cu': 3.96, 'Ni': 0.04, 'O': 8.0, 'Y': 1.0}",68.2,56.2428571429,8.5776881905,7,Y1 Ba2 Cu3.96 Ni0.04 O8
6282,"[1822, 1828, 4254, 5111, 7440, 9462]",Y1Ba2Cu3.96Zn0.04O8,Y1Ba2Cu3.96Zn0.04O8,"{'Ba': 2.0, 'Cu': 3.96, 'O': 8.0, 'Y': 1.0, 'Zn': 0.04}",57.6,48.975,14.8380072224,6,Y1 Ba2 Cu3.96 Zn0.04 O8
6283,[3762],Y1Ba2Cu3.96Zn0.06O8,Y1Ba2Cu3.96Zn0.06O8,"{'Ba': 2.0, 'Cu': 3.96, 'O': 8.0, 'Y': 1.0, 'Zn': 0.06}",50.1,50.1,0.0,1,Y1 Ba2 Cu3.96 Zn0.06 O8
6284,[7438],Y1Ba2Cu3.964Ni0.036O8,Y1Ba2Cu3.964Ni0.036O8,"{'Ba': 2.0, 'Cu': 3.964, 'Ni': 0.036000000000000004, 'O': 8.0, 'Y': 1.0}",63.0,63.0,0.0,1,Y1 Ba2 Cu3.964 Ni0.036 O8
6285,[5102],Y1Ba2Cu3.97Ni0.03O8,Y1Ba2Cu3.97Ni0.03O8,"{'Ba': 2.0, 'Cu': 3.9699999999999998, 'Ni': 0.03, 'O': 8.0, 'Y': 1.0}",70.4,70.4,0.0,1,Y1 Ba2 Cu3.97 Ni0.03 O8
6286,[8168],Y1Ba2Cu3.972Zn0.028O8,Y1Ba2Cu3.972Zn0.028O8,"{'Ba': 2.0, 'Cu': 3.972, 'O': 8.0, 'Y': 1.0, 'Zn': 0.028}",63.0,63.0,0.0,1,Y1 Ba2 Cu3.972 Zn0.028 O8
6287,[10594],Y0.8Pr0.2Ba2Cu3.975Fe0.025O8,Y0.8Pr0.2Ba2Cu3.975Fe0.025O8,"{'Ba': 2.0, 'Cu': 3.975, 'Fe': 0.025, 'O': 8.0, 'Pr': 0.2, 'Y': 0.8}",46.0,46.0,0.0,1,Y0.8 Pr0.2 Ba2 Cu3.975 Fe0.025 O8
6288,"[2780, 3765, 6055]",Y1Ba2Cu3.975Fe0.025O8,Y1Ba2Cu3.975Fe0.025O8,"{'Ba': 2.0, 'Cu': 3.975, 'Fe': 0.025, 'O': 8.0, 'Y': 1.0}",66.0,65.0666666667,0.6599663291,3,Y1 Ba2 Cu3.975 Fe0.025 O8
6289,[8004],Y1Ba2Cu3.976Zn0.024O8,Y1Ba2Cu3.976Zn0.024O8,"{'Ba': 2.0, 'Cu': 3.976, 'O': 8.0, 'Y': 1.0, 'Zn': 0.024}",63.0,63.0,0.0,1,Y1 Ba2 Cu3.976 Zn0.024 O8
6290,[4236],Y1Ba2Cu3.98Fe0.02O8,Y1Ba2Cu3.98Fe0.02O8,"{'Ba': 2.0, 'Cu': 3.98, 'Fe': 0.02, 'O': 8.0, 'Y': 1.0}",70.5,70.5,0.0,1,Y1 Ba2 Cu3.98 Fe0.02 O8
6291,[4259],Y1Ba2Cu3.98Ga0.02O8,Y1Ba2Cu3.98Ga0.02O8,"{'Ba': 2.0, 'Cu': 3.98, 'Ga': 0.02, 'O': 8.0, 'Y': 1.0}",77.75,77.75,0.0,1,Y1 Ba2 Cu3.98 Ga0.02 O8
6292,"[3758, 4249, 5101, 9457]",Y1Ba2Cu3.98Ni0.02O8,Y1Ba2Cu3.98Ni0.02O8,"{'Ba': 2.0, 'Cu': 3.98, 'Ni': 0.02, 'O': 8.0, 'Y': 1.0}",74.0,68.8125,4.1073676181,4,Y1 Ba2 Cu3.98 Ni0.02 O8
6293,"[3761, 4253, 4853, 5110, 7439, 9461]",Y1Ba2Cu3.98Zn0.02O8,Y1Ba2Cu3.98Zn0.02O8,"{'Ba': 2.0, 'Cu': 3.98, 'O': 8.0, 'Y': 1.0, 'Zn': 0.02}",68.0,63.325,7.4237092032,6,Y1 Ba2 Cu3.98 Zn0.02 O8
6294,[7703],Y1Ba2Cu3.985Zn0.015O7.95,Y1Ba2Cu3.985Zn0.015O7.95,"{'Ba': 2.0, 'Cu': 3.985, 'O': 7.95, 'Y': 1.0, 'Zn': 0.015}",70.0,70.0,0.0,1,Y1 Ba2 Cu3.985 Zn0.015 O7.95
6295,"[2781, 3764]",Y1Ba2Cu3.987Fe0.013O8,Y1Ba2Cu3.987Fe0.013O8,"{'Ba': 2.0, 'Cu': 3.987, 'Fe': 0.013000000000000001, 'O': 8.0, 'Y': 1.0}",70.3,70.15,0.15,2,Y1 Ba2 Cu3.987 Fe0.013 O8
6296,[4851],Y1Ba2Cu3.99Ni0.01O8,Y1Ba2Cu3.99Ni0.01O8,"{'Ba': 2.0, 'Cu': 3.99, 'Ni': 0.01, 'O': 8.0, 'Y': 1.0}",78.4,78.4,0.0,1,Y1 Ba2 Cu3.99 Ni0.01 O8
6297,[4852],Y1Ba2Cu3.99Zn0.01O8,Y1Ba2Cu3.99Zn0.01O8,"{'Ba': 2.0, 'Cu': 3.99, 'O': 8.0, 'Y': 1.0, 'Zn': 0.01}",73.3,73.3,0.0,1,Y1 Ba2 Cu3.99 Zn0.01 O8
6298,"[5109, 9460]",Y1Ba2Cu3.992Zn0.008O8,Y1Ba2Cu3.992Zn0.008O8,"{'Ba': 2.0, 'Cu': 3.992, 'O': 8.0, 'Y': 1.0, 'Zn': 0.008}",74.0,70.05,3.95,2,Y1 Ba2 Cu3.992 Zn0.008 O8
6299,[9456],Y1Ba2Cu3.996Ni0.004O8,Y1Ba2Cu3.996Ni0.004O8,"{'Ba': 2.0, 'Cu': 3.996, 'Ni': 0.004, 'O': 8.0, 'Y': 1.0}",78.0,78.0,0.0,1,Y1 Ba2 Cu3.996 Ni0.004 O8
6300,"[1467, 1739, 2094, 2121, 3267, 4335, 5051, 7621]",Dy1Ba2Cu4O8,Dy1Ba2Cu4O8,"{'Ba': 2.0, 'Cu': 4.0, 'Dy': 1.0, 'O': 8.0}",77.2,74.7,1.9646882704,8,Dy1 Ba2 Cu4 O8
6301,"[1468, 1478, 1742, 4333, 5048, 5331, 7625]",Er1Ba2Cu4O8,Er1Ba2Cu4O8,"{'Ba': 2.0, 'Cu': 4.0, 'Er': 1.0, 'O': 8.0}",80.1,78.6428571429,0.9053131153,7,Er1 Ba2 Cu4 O8
6302,"[7223, 7755]",Y0.75Eu0.25Ba2Cu4O8,Y0.75Eu0.25Ba2Cu4O8,"{'Ba': 2.0, 'Cu': 4.0, 'Eu': 0.25, 'O': 8.0, 'Y': 0.75}",78.0,78.0,0.0,2,Y0.75 Eu0.25 Ba2 Cu4 O8
6303,[7836],Eu0.5Pr0.5Ba2Cu4O8,Eu0.5Pr0.5Ba2Cu4O8,"{'Ba': 2.0, 'Cu': 4.0, 'Eu': 0.5, 'O': 8.0, 'Pr': 0.5}",27.5,27.5,0.0,1,Eu0.5 Pr0.5 Ba2 Cu4 O8
6304,"[7224, 7756]",Y0.5Eu0.5Ba2Cu4O8,Y0.5Eu0.5Ba2Cu4O8,"{'Ba': 2.0, 'Cu': 4.0, 'Eu': 0.5, 'O': 8.0, 'Y': 0.5}",77.0,77.0,0.0,2,Y0.5 Eu0.5 Ba2 Cu4 O8
6305,[7835],Eu0.6Pr0.4Ba2Cu4O8,Eu0.6Pr0.4Ba2Cu4O8,"{'Ba': 2.0, 'Cu': 4.0, 'Eu': 0.6000000000000001, 'O': 8.0, 'Pr': 0.4}",40.0,40.0,0.0,1,Eu0.6 Pr0.4 Ba2 Cu4 O8
6306,"[7225, 7757]",Y0.25Eu0.75Ba2Cu4O8,Y0.25Eu0.75Ba2Cu4O8,"{'Ba': 2.0, 'Cu': 4.0, 'Eu': 0.75, 'O': 8.0, 'Y': 0.25}",75.0,75.0,0.0,2,Y0.25 Eu0.75 Ba2 Cu4 O8
6307,[7834],Eu0.8Pr0.2Ba2Cu4O8,Eu0.8Pr0.2Ba2Cu4O8,"{'Ba': 2.0, 'Cu': 4.0, 'Eu': 0.8, 'O': 8.0, 'Pr': 0.2}",63.5,63.5,0.0,1,Eu0.8 Pr0.2 Ba2 Cu4 O8
6308,"[1472, 1737, 2119, 7226, 7758, 7833]",Eu1Ba2Cu4O8,Eu1Ba2Cu4O8,"{'Ba': 2.0, 'Cu': 4.0, 'Eu': 1.0, 'O': 8.0}",74.0,70.55,2.6411802917,6,Eu1 Ba2 Cu4 O8
6309,[21393],Y0.95Ga0.05Ba2Cu4O8,Y0.95Ga0.05Ba2Cu4O8,"{'Ba': 2.0, 'Cu': 4.0, 'Ga': 0.05, 'O': 8.0, 'Y': 0.9500000000000001}",75.0,75.0,0.0,1,Y0.95 Ga0.05 Ba2 Cu4 O8
6310,[21394],Y0.9Ga0.1Ba2Cu4O8,Y0.9Ga0.1Ba2Cu4O8,"{'Ba': 2.0, 'Cu': 4.0, 'Ga': 0.1, 'O': 8.0, 'Y': 0.9}",74.0,74.0,0.0,1,Y0.9 Ga0.1 Ba2 Cu4 O8
6311,[21395],Y0.8Ga0.2Ba2Cu4O8,Y0.8Ga0.2Ba2Cu4O8,"{'Ba': 2.0, 'Cu': 4.0, 'Ga': 0.2, 'O': 8.0, 'Y': 0.8}",69.0,69.0,0.0,1,Y0.8 Ga0.2 Ba2 Cu4 O8
6312,"[1473, 1738, 2120, 5052, 5732, 6256, 6767, 7623]",Gd1Ba2Cu4O8,Gd1Ba2Cu4O8,"{'Ba': 2.0, 'Cu': 4.0, 'Gd': 1.0, 'O': 8.0}",77.0,73.3,2.1488368947,8,Gd1 Ba2 Cu4 O8
6313,"[1118, 1119, 1477, 1528, 1741, 2122, 4334, 5049, 5335, 5735, 6259, 6908, 7624, 10500, 10501]",Ho1Ba2Cu4O8,Ho1Ba2Cu4O8,"{'Ba': 2.0, 'Cu': 4.0, 'Ho': 1.0, 'O': 8.0}",82.0,77.2133333333,2.9621763771,15,Ho1 Ba2 Cu4 O8
6314,[2469],Y1Ba2Cu4Li0.016O8,Y1Ba2Cu4Li0.016O8,"{'Ba': 2.0, 'Cu': 4.0, 'Li': 0.016, 'O': 8.0, 'Y': 1.0}",77.0,77.0,0.0,1,Y1 Ba2 Cu4 Li0.016 O8
6315,[2470],Y1Ba2Cu4Li0.031O8,Y1Ba2Cu4Li0.031O8,"{'Ba': 2.0, 'Cu': 4.0, 'Li': 0.031, 'O': 8.0, 'Y': 1.0}",72.0,72.0,0.0,1,Y1 Ba2 Cu4 Li0.031 O8
6316,[2471],Y1Ba2Cu4Li0.062O8,Y1Ba2Cu4Li0.062O8,"{'Ba': 2.0, 'Cu': 4.0, 'Li': 0.062, 'O': 8.0, 'Y': 1.0}",64.0,64.0,0.0,1,Y1 Ba2 Cu4 Li0.062 O8
6317,[2472],Y1Ba2Cu4Li0.125O8,Y1Ba2Cu4Li0.125O8,"{'Ba': 2.0, 'Cu': 4.0, 'Li': 0.125, 'O': 8.0, 'Y': 1.0}",58.0,58.0,0.0,1,Y1 Ba2 Cu4 Li0.125 O8
6318,[2473],Y1Ba2Cu4Li0.25O8,Y1Ba2Cu4Li0.25O8,"{'Ba': 2.0, 'Cu': 4.0, 'Li': 0.25, 'O': 8.0, 'Y': 1.0}",58.0,58.0,0.0,1,Y1 Ba2 Cu4 Li0.25 O8
6319,[25856],Lu0.8Nd0.2Ba2Cu4O8,Lu0.8Nd0.2Ba2Cu4O8,"{'Ba': 2.0, 'Cu': 4.0, 'Lu': 0.8, 'Nd': 0.2, 'O': 8.0}",75.0,75.0,0.0,1,Lu0.8 Nd0.2 Ba2 Cu4 O8
6320,[24195],Y1Ba2Cu4O6.998,Y1Ba2Cu4O6.998,"{'Ba': 2.0, 'Cu': 4.0, 'O': 6.998, 'Y': 1.0}",90.5,90.5,0.0,1,Y1 Ba2 Cu4 O6.998
6321,[1191],Y1Ba2Cu4O7.8,Y1Ba2Cu4O7.8,"{'Ba': 2.0, 'Cu': 4.0, 'O': 7.8, 'Y': 1.0}",77.5,77.5,0.0,1,Y1 Ba2 Cu4 O7.8
6322,[2012],Y1Ba2Cu4O7.9,Y1Ba2Cu4O7.9,"{'Ba': 2.0, 'Cu': 4.0, 'O': 7.9, 'Y': 1.0}",78.3,78.3,0.0,1,Y1 Ba2 Cu4 O7.9
6323,[7701],Y0.8Pr0.2Ba2Cu4O7.95,Y0.8Pr0.2Ba2Cu4O7.95,"{'Ba': 2.0, 'Cu': 4.0, 'O': 7.95, 'Pr': 0.2, 'Y': 0.8}",74.0,74.0,0.0,1,Y0.8 Pr0.2 Ba2 Cu4 O7.95
6324,[7702],Y0.6Pr0.4Ba2Cu4O7.95,Y0.6Pr0.4Ba2Cu4O7.95,"{'Ba': 2.0, 'Cu': 4.0, 'O': 7.95, 'Pr': 0.4, 'Y': 0.6000000000000001}",63.0,63.0,0.0,1,Y0.6 Pr0.4 Ba2 Cu4 O7.95
6325,[7700],Y1Ba2Cu4O7.95,Y1Ba2Cu4O7.95,"{'Ba': 2.0, 'Cu': 4.0, 'O': 7.95, 'Y': 1.0}",82.0,82.0,0.0,1,Y1 Ba2 Cu4 O7.95
6326,[1210],Y1Ba2Cu4O7.96,Y1Ba2Cu4O7.96,"{'Ba': 2.0, 'Cu': 4.0, 'O': 7.96, 'Y': 1.0}",86.0,86.0,0.0,1,Y1 Ba2 Cu4 O7.96
6327,"[1224, 20675]",Y1Ba2Cu4O7.986,Y1Ba2Cu4O7.986,"{'Ba': 2.0, 'Cu': 4.0, 'O': 7.986, 'Y': 1.0}",80.0,79.6,0.4,2,Y1 Ba2 Cu4 O7.986
6328,[3444],Y0.95Pr0.05Ba2Cu4O8,Y0.95Pr0.05Ba2Cu4O8,"{'Ba': 2.0, 'Cu': 4.0, 'O': 8.0, 'Pr': 0.05, 'Y': 0.9500000000000001}",77.0,77.0,0.0,1,Y0.95 Pr0.05 Ba2 Cu4 O8
6329,"[3417, 3445, 6078, 6802, 7838]",Y0.9Pr0.1Ba2Cu4O8,Y0.9Pr0.1Ba2Cu4O8,"{'Ba': 2.0, 'Cu': 4.0, 'O': 8.0, 'Pr': 0.1, 'Y': 0.9}",75.0,72.62,3.437673632,5,Y0.9 Pr0.1 Ba2 Cu4 O8
6330,[3446],Y0.85Pr0.15Ba2Cu4O8,Y0.85Pr0.15Ba2Cu4O8,"{'Ba': 2.0, 'Cu': 4.0, 'O': 8.0, 'Pr': 0.15, 'Y': 0.85}",72.3,72.3,0.0,1,Y0.85 Pr0.15 Ba2 Cu4 O8
6331,"[3418, 3447, 6079, 7839, 9137, 10593, 11501]",Y0.8Pr0.2Ba2Cu4O8,Y0.8Pr0.2Ba2Cu4O8,"{'Ba': 2.0, 'Cu': 4.0, 'O': 8.0, 'Pr': 0.2, 'Y': 0.8}",70.8,66.7857142857,4.0108526245,7,Y0.8 Pr0.2 Ba2 Cu4 O8
6332,"[3419, 6080, 7840, 11502]",Y0.7Pr0.3Ba2Cu4O8,Y0.7Pr0.3Ba2Cu4O8,"{'Ba': 2.0, 'Cu': 4.0, 'O': 8.0, 'Pr': 0.30000000000000004, 'Y': 0.7000000000000001}",66.5,63.0,2.2638462845,4,Y0.7 Pr0.3 Ba2 Cu4 O8
6333,"[3420, 6081, 7841, 9138]",Y0.6Pr0.4Ba2Cu4O8,Y0.6Pr0.4Ba2Cu4O8,"{'Ba': 2.0, 'Cu': 4.0, 'O': 8.0, 'Pr': 0.4, 'Y': 0.6000000000000001}",60.0,55.25,4.2056509603,4,Y0.6 Pr0.4 Ba2 Cu4 O8
6334,"[3421, 6082, 7842]",Y0.5Pr0.5Ba2Cu4O8,Y0.5Pr0.5Ba2Cu4O8,"{'Ba': 2.0, 'Cu': 4.0, 'O': 8.0, 'Pr': 0.5, 'Y': 0.5}",52.5,50.5,1.4719601444000001,3,Y0.5 Pr0.5 Ba2 Cu4 O8
6335,"[3422, 6083, 7843, 9139]",Y0.4Pr0.6Ba2Cu4O8,Y0.4Pr0.6Ba2Cu4O8,"{'Ba': 2.0, 'Cu': 4.0, 'O': 8.0, 'Pr': 0.6000000000000001, 'Y': 0.4}",40.5,37.875,3.434657916,4,Y0.4 Pr0.6 Ba2 Cu4 O8
6336,"[3423, 6084, 7190, 7844]",Y0.3Pr0.7Ba2Cu4O8,Y0.3Pr0.7Ba2Cu4O8,"{'Ba': 2.0, 'Cu': 4.0, 'O': 8.0, 'Pr': 0.7000000000000001, 'Y': 0.30000000000000004}",29.0,23.0,3.6742346142,4,Y0.3 Pr0.7 Ba2 Cu4 O8
6337,[21390],Y0.95Sc0.05Ba2Cu4O8,Y0.95Sc0.05Ba2Cu4O8,"{'Ba': 2.0, 'Cu': 4.0, 'O': 8.0, 'Sc': 0.05, 'Y': 0.9500000000000001}",79.0,79.0,0.0,1,Y0.95 Sc0.05 Ba2 Cu4 O8
6338,[21391],Y0.9Sc0.1Ba2Cu4O8,Y0.9Sc0.1Ba2Cu4O8,"{'Ba': 2.0, 'Cu': 4.0, 'O': 8.0, 'Sc': 0.1, 'Y': 0.9}",81.0,81.0,0.0,1,Y0.9 Sc0.1 Ba2 Cu4 O8
6339,[21392],Y0.8Sc0.2Ba2Cu4O8,Y0.8Sc0.2Ba2Cu4O8,"{'Ba': 2.0, 'Cu': 4.0, 'O': 8.0, 'Sc': 0.2, 'Y': 0.8}",87.0,87.0,0.0,1,Y0.8 Sc0.2 Ba2 Cu4 O8
6340,"[1471, 1736]",Sm1Ba2Cu4O8,Sm1Ba2Cu4O8,"{'Ba': 2.0, 'Cu': 4.0, 'O': 8.0, 'Sm': 1.0}",69.3,69.3,0.0,2,Sm1 Ba2 Cu4 O8
6341,[6800],Y0.9Tb0.1Ba2Cu4O8,Y0.9Tb0.1Ba2Cu4O8,"{'Ba': 2.0, 'Cu': 4.0, 'O': 8.0, 'Tb': 0.1, 'Y': 0.9}",78.0,78.0,0.0,1,Y0.9 Tb0.1 Ba2 Cu4 O8
6342,"[1469, 1743, 4332, 5047, 5326, 7626]",Tm1Ba2Cu4O8,Tm1Ba2Cu4O8,"{'Ba': 2.0, 'Cu': 4.0, 'O': 8.0, 'Tm': 1.0}",80.0,79.2833333333,0.5785518319,6,Tm1 Ba2 Cu4 O8