,sc_id,supercon_formula,cleaned_formula,material_dict,highest_Tc,average_Tc,std_Tc,entry_count,composition
2604,[16487],Mg0.9Ti0.1B2,Mg0.9Ti0.1B2,"{'B': 2.0, 'Mg': 0.9, 'Ti': 0.1}",38.3,38.3,0.0,1,Mg0.9 Ti0.1 B2
2605,[17196],Mg0.9Zn0.1B2,Mg0.9Zn0.1B2,"{'B': 2.0, 'Mg': 0.9, 'Zn': 0.1}",38.4,38.4,0.0,1,Mg0.9 Zn0.1 B2
2606,"[16578, 16994]",Mg0.9Zr0.1B2,Mg0.9Zr0.1B2,"{'B': 2.0, 'Mg': 0.9, 'Zr': 0.1}",37.3,37.3,0.0,2,Mg0.9 Zr0.1 B2
2607,[16410],Mg0.93Na0.07B2,Mg0.93Na0.07B2,"{'B': 2.0, 'Mg': 0.93, 'Na': 0.07}",38.0,38.0,0.0,1,Mg0.93 Na0.07 B2
2608,[11610],Mg0.94Pb0.06B2,Mg0.94Pb0.06B2,"{'B': 2.0, 'Mg': 0.9400000000000001, 'Pb': 0.06}",35.0,35.0,0.0,1,Mg0.94 Pb0.06 B2
2609,[16350],Mg0.95Mn0.05B2,Mg0.95Mn0.05B2,"{'B': 2.0, 'Mg': 0.9500000000000001, 'Mn': 0.05}",30.0,30.0,0.0,1,Mg0.95 Mn0.05 B2
2610,[16486],Mg0.95Ti0.05B2,Mg0.95Ti0.05B2,"{'B': 2.0, 'Mg': 0.9500000000000001, 'Ti': 0.05}",38.5,38.5,0.0,1,Mg0.95 Ti0.05 B2
2611,[17195],Mg0.95Zn0.05B2,Mg0.95Zn0.05B2,"{'B': 2.0, 'Mg': 0.9500000000000001, 'Zn': 0.05}",38.3,38.3,0.0,1,Mg0.95 Zn0.05 B2
2612,[16993],Mg0.95Zr0.05B2,Mg0.95Zr0.05B2,"{'B': 2.0, 'Mg': 0.9500000000000001, 'Zr': 0.05}",37.7,37.7,0.0,1,Mg0.95 Zr0.05 B2
2613,[16349],Mg0.96Mn0.04B2,Mg0.96Mn0.04B2,"{'B': 2.0, 'Mg': 0.96, 'Mn': 0.04}",32.3,32.3,0.0,1,Mg0.96 Mn0.04 B2
2614,"[16348, 20536]",Mg0.97Mn0.03B2,Mg0.97Mn0.03B2,"{'B': 2.0, 'Mg': 0.97, 'Mn': 0.03}",33.3,22.85,10.45,2,Mg0.97 Mn0.03 B2
2615,[16409],Mg0.97Na0.03B2,Mg0.97Na0.03B2,"{'B': 2.0, 'Mg': 0.97, 'Na': 0.03}",38.0,38.0,0.0,1,Mg0.97 Na0.03 B2
2616,[20492],B2Mg0.98,B2Mg0.98,"{'B': 2.0, 'Mg': 0.98}",38.4,38.4,0.0,1,B2 Mg0.98
2617,"[16347, 20535]",Mg0.98Mn0.02B2,Mg0.98Mn0.02B2,"{'B': 2.0, 'Mg': 0.98, 'Mn': 0.02}",34.5,28.85,5.65,2,Mg0.98 Mn0.02 B2
2618,[11609],Mg0.98Pb0.02B2,Mg0.98Pb0.02B2,"{'B': 2.0, 'Mg': 0.98, 'Pb': 0.02}",35.5,35.5,0.0,1,Mg0.98 Pb0.02 B2
2619,[18374],Mg0.98Sc0.02B2,Mg0.98Sc0.02B2,"{'B': 2.0, 'Mg': 0.98, 'Sc': 0.02}",39.0,39.0,0.0,1,Mg0.98 Sc0.02 B2
2620,[22675],B2Mg0.988Sc0.012,B2Mg0.988Sc0.012,"{'B': 2.0, 'Mg': 0.988, 'Sc': 0.012}",41.4,41.4,0.0,1,B2 Mg0.988 Sc0.012
2621,"[16346, 20534]",Mg0.99Mn0.01B2,Mg0.99Mn0.01B2,"{'B': 2.0, 'Mg': 0.99, 'Mn': 0.01}",36.2,33.4,2.8,2,Mg0.99 Mn0.01 B2
2622,[11608],Mg0.99Pb0.01B2,Mg0.99Pb0.01B2,"{'B': 2.0, 'Mg': 0.99, 'Pb': 0.01}",35.9,35.9,0.0,1,Mg0.99 Pb0.01 B2
2623,[16646],Mg0.99Sn0.01B2,Mg0.99Sn0.01B2,"{'B': 2.0, 'Mg': 0.99, 'Sn': 0.01}",33.5,33.5,0.0,1,Mg0.99 Sn0.01 B2
2624,[16485],Mg0.99Ti0.01B2,Mg0.99Ti0.01B2,"{'B': 2.0, 'Mg': 0.99, 'Ti': 0.01}",38.6,38.6,0.0,1,Mg0.99 Ti0.01 B2
2625,"[11338, 11342, 11356, 11398, 11607, 11639, 11800, 11805, 11956, 12524, 12556, 12562, 12660, 12665, 12666, 12667, 12668, 12669, 12674, 12722, 12783, 16126, 16128, 16131, 16132, 16133, 16134, 16135, 16136, 16137, 16138, 16159, 16161, 16189, 16202, 16203, 16208, 16213, 16217, 16219, 16220, 16221, 16222, 16232, 16235, 16236, 16307, 16309, 16310, 16311, 16312, 16313, 16314, 16315, 16323, 16324, 16330, 16331, 16332, 16333, 16335, 16345, 16351, 16353, 16354, 16405, 16406, 16408, 16415, 16416, 16427, 16429, 16472, 16473, 16474, 16484, 16493, 16543, 16556, 16563, 16577, 16583, 16584, 16585, 16591, 16592, 16593, 16608, 16631, 16638, 16639, 16640, 16641, 16650, 16651, 16666, 16671, 16891, 16892, 16950, 16952, 16980, 16988, 16989, 16992, 17004, 17040, 17114, 17115, 17134, 17138, 17140, 17156, 17160, 17161, 17162, 17168, 17182, 17188, 17194, 17201, 17207, 17219, 17221, 17247, 17291, 17292, 17293, 17303, 17308, 17380, 17394, 17437, 17495, 17567, 17568, 18369, 18377, 18419, 18480, 18481, 18482, 18866, 18877, 19956, 19974, 20448, 20530, 21731, 22674, 23530, 24514, 24775]",B2Mg1,B2Mg1,"{'B': 2.0, 'Mg': 1.0}",40.5,37.5805882353,4.7756645139,153,B2 Mg1
2626,[21735],Mg1.98Mn0.02B2,Mg1.98Mn0.02B2,"{'B': 2.0, 'Mg': 1.98, 'Mn': 0.02}",36.9,36.9,0.0,1,Mg1.98 Mn0.02 B2
2627,[21734],Mg1.985Mn0.015B2,Mg1.985Mn0.015B2,"{'B': 2.0, 'Mg': 1.9849999999999999, 'Mn': 0.015}",37.4,37.4,0.0,1,Mg1.985 Mn0.015 B2
2628,[21733],Mg1.99Mn0.01B2,Mg1.99Mn0.01B2,"{'B': 2.0, 'Mg': 1.99, 'Mn': 0.01}",37.6,37.6,0.0,1,Mg1.99 Mn0.01 B2
2629,[21732],Mg1.995Mn0.005B2,Mg1.995Mn0.005B2,"{'B': 2.0, 'Mg': 1.995, 'Mn': 0.005}",37.7,37.7,0.0,1,Mg1.995 Mn0.005 B2
2630,[24326],Mg4Ni6B2,Mg4Ni6B2,"{'B': 2.0, 'Mg': 4.0, 'Ni': 6.0}",4.0,4.0,0.0,1,Mg4 Ni6 B2
2631,[17019],Mo0.816Zr0.034B2,Mo0.816Zr0.034B2,"{'B': 2.0, 'Mo': 0.8160000000000001, 'Zr': 0.034}",8.14,8.14,0.0,1,Mo0.816 Zr0.034 B2
2632,[17020],Mo0.8448Zr0.0352B2,Mo0.8448Zr0.0352B2,"{'B': 2.0, 'Mo': 0.8448, 'Zr': 0.0352}",8.11,8.11,0.0,1,Mo0.8448 Zr0.0352 B2
2633,[17021],Mo0.8736Zr0.0364B2,Mo0.8736Zr0.0364B2,"{'B': 2.0, 'Mo': 0.8736, 'Zr': 0.0364}",7.92,7.92,0.0,1,Mo0.8736 Zr0.0364 B2
2634,[17022],Mo0.9216Zr0.0384B2,Mo0.9216Zr0.0384B2,"{'B': 2.0, 'Mo': 0.9216000000000001, 'Zr': 0.038400000000000004}",7.51,7.51,0.0,1,Mo0.9216 Zr0.0384 B2
2635,[17023],Mo0.96Zr0.04B2,Mo0.96Zr0.04B2,"{'B': 2.0, 'Mo': 0.96, 'Zr': 0.04}",5.74,5.74,0.0,1,Mo0.96 Zr0.04 B2
2636,[20289],Mo1.75Ru1.25B2,Mo1.75Ru1.25B2,"{'B': 2.0, 'Mo': 1.75, 'Ru': 1.25}",3.7,3.7,0.0,1,Mo1.75 Ru1.25 B2
2637,[24609],Mo5P1B2,Mo5P1B2,"{'B': 2.0, 'Mo': 5.0, 'P': 1.0}",8.7,8.7,0.0,1,Mo5 P1 B2
2638,[22568],Mo5Si1B2,Mo5Si1B2,"{'B': 2.0, 'Mo': 5.0, 'Si': 1.0}",5.8,5.8,0.0,1,Mo5 Si1 B2
2639,[11822],B2Nb0.3,B2Nb0.3,"{'B': 2.0, 'Nb': 0.30000000000000004}",6.1,6.1,0.0,1,B2 Nb0.3
2640,[11821],B2Nb0.4,B2Nb0.4,"{'B': 2.0, 'Nb': 0.4}",6.57,6.57,0.0,1,B2 Nb0.4
2641,[11820],B2Nb0.5,B2Nb0.5,"{'B': 2.0, 'Nb': 0.5}",7.5600000000000005,7.5600000000000005,0.0,1,B2 Nb0.5
2642,[11819],B2Nb0.6,B2Nb0.6,"{'B': 2.0, 'Nb': 0.6000000000000001}",8.04,8.04,0.0,1,B2 Nb0.6
2643,[11818],B2Nb0.7,B2Nb0.7,"{'B': 2.0, 'Nb': 0.7000000000000001}",7.96,7.96,0.0,1,B2 Nb0.7
2644,[11817],B2Nb0.8,B2Nb0.8,"{'B': 2.0, 'Nb': 0.8}",4.55,4.55,0.0,1,B2 Nb0.8
2645,[20469],B2Nb0.83,B2Nb0.83,"{'B': 2.0, 'Nb': 0.8300000000000001}",9.77,9.77,0.0,1,B2 Nb0.83
2646,[17039],B2Nb0.84,B2Nb0.84,"{'B': 2.0, 'Nb': 0.84}",9.1,9.1,0.0,1,B2 Nb0.84
2647,[11816],B2Nb0.9,B2Nb0.9,"{'B': 2.0, 'Nb': 0.9}",3.64,3.64,0.0,1,B2 Nb0.9
2648,[26064],Nb0.9Ni0.1B2,Nb0.9Ni0.1B2,"{'B': 2.0, 'Nb': 0.9, 'Ni': 0.1}",5.4,5.4,0.0,1,Nb0.9 Ni0.1 B2
2649,[26063],Nb0.91Ni0.09B2,Nb0.91Ni0.09B2,"{'B': 2.0, 'Nb': 0.91, 'Ni': 0.09}",6.0,6.0,0.0,1,Nb0.91 Ni0.09 B2
2650,[26062],Nb0.93Ni0.07B2,Nb0.93Ni0.07B2,"{'B': 2.0, 'Nb': 0.93, 'Ni': 0.07}",5.1,5.1,0.0,1,Nb0.93 Ni0.07 B2
2651,[26061],Nb0.95Ni0.05B2,Nb0.95Ni0.05B2,"{'B': 2.0, 'Nb': 0.9500000000000001, 'Ni': 0.05}",4.6,4.6,0.0,1,Nb0.95 Ni0.05 B2
2652,[26060],Nb0.97Ni0.03B2,Nb0.97Ni0.03B2,"{'B': 2.0, 'Nb': 0.97, 'Ni': 0.03}",4.3,4.3,0.0,1,Nb0.97 Ni0.03 B2
2653,[26059],Nb0.99Ni0.01B2,Nb0.99Ni0.01B2,"{'B': 2.0, 'Nb': 0.99, 'Ni': 0.01}",3.9,3.9,0.0,1,Nb0.99 Ni0.01 B2
2654,"[11815, 12633, 16113, 20094, 20468, 20471, 20472, 20473, 26058]",B2Nb1,B2Nb1,"{'B': 2.0, 'Nb': 1.0}",9.5,4.2311111111,3.1240445453,9,B2 Nb1
2655,[25804],Nb1Rh2B2,Nb1Rh2B2,"{'B': 2.0, 'Nb': 1.0, 'Rh': 2.0}",7.6,7.6,0.0,1,Nb1 Rh2 B2
2656,"[20271, 20272, 20282, 21928]",B2Os1,B2Os1,"{'B': 2.0, 'Os': 1.0}",2.17,2.14,0.03082207,4,B2 Os1
2657,"[16735, 18903]",Sc1Os1B2,Sc1Os1B2,"{'B': 2.0, 'Os': 1.0, 'Sc': 1.0}",1.34,1.34,0.0,2,Sc1 Os1 B2
2658,"[16736, 18904]",Y1Os1B2,Y1Os1B2,"{'B': 2.0, 'Os': 1.0, 'Y': 1.0}",2.22,2.22,0.0,2,Y1 Os1 B2
2659,[18915],Y1Os3B2,Y1Os3B2,"{'B': 2.0, 'Os': 3.0, 'Y': 1.0}",6.0,6.0,0.0,1,Y1 Os3 B2
2660,[16755],Sr0.67Pt3B2,Sr0.67Pt3B2,"{'B': 2.0, 'Pt': 3.0, 'Sr': 0.67}",2.7800000000000002,2.7800000000000002,0.0,1,Sr0.67 Pt3 B2
2661,[16207],B2Re1,B2Re1,"{'B': 2.0, 'Re': 1.0}",6.3,6.3,0.0,1,B2 Re1
2662,"[25644, 25803]",Ta1Rh2B2,Ta1Rh2B2,"{'B': 2.0, 'Rh': 2.0, 'Ta': 1.0}",6.0,5.9,0.1,2,Ta1 Rh2 B2
2663,"[20281, 25482]",B2Ru1,B2Ru1,"{'B': 2.0, 'Ru': 1.0}",1.6,1.55,0.05,2,B2 Ru1
2664,[18901],Y0.8Sc0.2Ru1B2,Y0.8Sc0.2Ru1B2,"{'B': 2.0, 'Ru': 1.0, 'Sc': 0.2, 'Y': 0.8}",8.1,8.1,0.0,1,Y0.8 Sc0.2 Ru1 B2
2665,"[16733, 18900, 18914, 20871, 21638, 25508]",Y1Ru1B2,Y1Ru1B2,"{'B': 2.0, 'Ru': 1.0, 'Y': 1.0}",7.8,7.75,0.07637626160000001,6,Y1 Ru1 B2
2666,[20290],W1.75Ru1.25B2,W1.75Ru1.25B2,"{'B': 2.0, 'Ru': 1.25, 'W': 1.75}",3.38,3.38,0.0,1,W1.75 Ru1.25 B2
2667,[24647],W4.8Ta0.2Si1B2,W4.8Ta0.2Si1B2,"{'B': 2.0, 'Si': 1.0, 'Ta': 0.2, 'W': 4.8}",6.5,6.5,0.0,1,W4.8 Ta0.2 Si1 B2
2668,"[22295, 22697]",W5Si1B2,W5Si1B2,"{'B': 2.0, 'Si': 1.0, 'W': 5.0}",5.8,5.8,0.0,2,W5 Si1 B2
2669,[16125],B2Ta1,B2Ta1,"{'B': 2.0, 'Ta': 1.0}",9.5,9.5,0.0,1,B2 Ta1
2670,[23268],Zr0.99V0.01B2,Zr0.99V0.01B2,"{'B': 2.0, 'V': 0.01, 'Zr': 0.99}",6.4,6.4,0.0,1,Zr0.99 V0.01 B2
2671,"[23269, 25220]",Zr0.96V0.04B2,Zr0.96V0.04B2,"{'B': 2.0, 'V': 0.04, 'Zr': 0.96}",8.7,8.515,0.185,2,Zr0.96 V0.04 B2
2672,[23270],Zr0.95V0.05B2,Zr0.95V0.05B2,"{'B': 2.0, 'V': 0.05, 'Zr': 0.9500000000000001}",8.2,8.2,0.0,1,Zr0.95 V0.05 B2
2673,[16352],B2Zr1,B2Zr1,"{'B': 2.0, 'Zr': 1.0}",5.5,5.5,0.0,1,B2 Zr1
2674,[12634],B2.03Nb1,B2.03Nb1,"{'B': 2.03, 'Nb': 1.0}",5.26,5.26,0.0,1,B2.03 Nb1
2675,[24608],Mo5P0.9B2.1,Mo5P0.9B2.1,"{'B': 2.1, 'Mo': 5.0, 'P': 0.9}",8.9,8.9,0.0,1,Mo5 P0.9 B2.1
2676,"[12635, 18420]",B2.1Nb1,B2.1Nb1,"{'B': 2.1, 'Nb': 1.0}",9.1,7.45,1.65,2,B2.1 Nb1
2677,"[20360, 20654]",B2.2Nb1,B2.2Nb1,"{'B': 2.2, 'Nb': 1.0}",9.01,6.305,2.705,2,B2.2 Nb1
2678,[17559],B2.26Nb1,B2.26Nb1,"{'B': 2.26, 'Nb': 1.0}",9.2,9.2,0.0,1,B2.26 Nb1
2679,[17558],B2.32Nb1,B2.32Nb1,"{'B': 2.32, 'Nb': 1.0}",9.8,9.8,0.0,1,B2.32 Nb1
2680,[20361],B2.34Nb1,B2.34Nb1,"{'B': 2.34, 'Nb': 1.0}",9.16,9.16,0.0,1,B2.34 Nb1
2681,[17334],La0.1Nd0.9Pt2.1B2.4C1.2,La0.1Nd0.9Pt2.1B2.4C1.2,"{'B': 2.4, 'C': 1.2, 'La': 0.1, 'Nd': 0.9, 'Pt': 2.1}",3.45,3.45,0.0,1,La0.1 Nd0.9 Pt2.1 B2.4 C1.2
2682,[17333],La0.3Nd0.7Pt2.1B2.4C1.2,La0.3Nd0.7Pt2.1B2.4C1.2,"{'B': 2.4, 'C': 1.2, 'La': 0.30000000000000004, 'Nd': 0.7000000000000001, 'Pt': 2.1}",4.28,4.28,0.0,1,La0.3 Nd0.7 Pt2.1 B2.4 C1.2
2683,[17332],La0.5Nd0.5Pt2.1B2.4C1.2,La0.5Nd0.5Pt2.1B2.4C1.2,"{'B': 2.4, 'C': 1.2, 'La': 0.5, 'Nd': 0.5, 'Pt': 2.1}",6.36,6.36,0.0,1,La0.5 Nd0.5 Pt2.1 B2.4 C1.2
2684,[17331],La0.7Nd0.3Pt2.1B2.4C1.2,La0.7Nd0.3Pt2.1B2.4C1.2,"{'B': 2.4, 'C': 1.2, 'La': 0.7000000000000001, 'Nd': 0.30000000000000004, 'Pt': 2.1}",7.84,7.84,0.0,1,La0.7 Nd0.3 Pt2.1 B2.4 C1.2
2685,"[16606, 17330]",La0.9Nd0.1Pt2.1B2.4C1.2,La0.9Nd0.1Pt2.1B2.4C1.2,"{'B': 2.4, 'C': 1.2, 'La': 0.9, 'Nd': 0.1, 'Pt': 2.1}",10.3,9.4,0.9,2,La0.9 Nd0.1 Pt2.1 B2.4 C1.2
2686,[16607],La0.9Pr0.1Pt2.1B2.4C1.2,La0.9Pr0.1Pt2.1B2.4C1.2,"{'B': 2.4, 'C': 1.2, 'La': 0.9, 'Pr': 0.1, 'Pt': 2.1}",9.0,9.0,0.0,1,La0.9 Pr0.1 Pt2.1 B2.4 C1.2
2687,"[16604, 17329]",La1Pt2.1B2.4C1.2,La1Pt2.1B2.4C1.2,"{'B': 2.4, 'C': 1.2, 'La': 1.0, 'Pt': 2.1}",10.5,10.35,0.15,2,La1 Pt2.1 B2.4 C1.2
2688,[17335],Nd1Pt2.1B2.4C1.2,Nd1Pt2.1B2.4C1.2,"{'B': 2.4, 'C': 1.2, 'Nd': 1.0, 'Pt': 2.1}",2.91,2.91,0.0,1,Nd1 Pt2.1 B2.4 C1.2
2689,[16605],Pr1Pt2.1B2.4C1.2,Pr1Pt2.1B2.4C1.2,"{'B': 2.4, 'C': 1.2, 'Pr': 1.0, 'Pt': 2.1}",6.0,6.0,0.0,1,Pr1 Pt2.1 B2.4 C1.2
2690,[20655],B2.4Nb1,B2.4Nb1,"{'B': 2.4, 'Nb': 1.0}",9.96,9.96,0.0,1,B2.4 Nb1
2691,"[12977, 20284]",B2.5Mo1,B2.5Mo1,"{'B': 2.5, 'Mo': 1.0}",8.1,7.775,0.325,2,B2.5 Mo1
2692,[12979],B2.5Nb1,B2.5Nb1,"{'B': 2.5, 'Nb': 1.0}",6.4,6.4,0.0,1,B2.5 Nb1
2693,[3587],Sr15.9Ca7.6Cu17.6C3.3B2.6O53,Sr15.9Ca7.6Cu17.6C3.3B2.6O53,"{'B': 2.6, 'C': 3.3, 'Ca': 7.6, 'Cu': 17.6, 'O': 53.0, 'Sr': 15.9}",105.0,105.0,0.0,1,Sr15.9 Ca7.6 Cu17.6 C3.3 B2.6 O53
2694,[20656],B2.6Nb1,B2.6Nb1,"{'B': 2.6, 'Nb': 1.0}",10.9,10.9,0.0,1,B2.6 Nb1
2695,"[16357, 16358, 16672, 16673]",B2.75Be1,B2.75Be1,"{'B': 2.75, 'Be': 1.0}",0.79,0.755,0.035,4,B2.75 Be1
2696,[18164],B2.8C97.2,B2.8C97.2,"{'B': 2.8, 'C': 97.2}",4.0,4.0,0.0,1,B2.8 C97.2
2697,[20657],B2.8Nb1,B2.8Nb1,"{'B': 2.8, 'Nb': 1.0}",9.96,9.96,0.0,1,B2.8 Nb1
2698,[3588],Sr16.7Ca7.7Cu19.4C1.9B2.9O51.7,Sr16.7Ca7.7Cu19.4C1.9B2.9O51.7,"{'B': 2.9, 'C': 1.9, 'Ca': 7.7, 'Cu': 19.4, 'O': 51.7, 'Sr': 16.7}",115.0,115.0,0.0,1,Sr16.7 Ca7.7 Cu19.4 C1.9 B2.9 O51.7
2699,[16946],B3Be1.09,B3Be1.09,"{'B': 3.0, 'Be': 1.09}",0.72,0.72,0.0,1,B3 Be1.09
2700,[12496],La9Br5B3C6,La9Br5B3C6,"{'B': 3.0, 'Br': 5.0, 'C': 6.0, 'La': 9.0}",6.0,6.0,0.0,1,La9 Br5 B3 C6
2701,[15463],Y1Pd3B3C0.3,Y1Pd3B3C0.3,"{'B': 3.0, 'C': 0.30000000000000004, 'Pd': 3.0, 'Y': 1.0}",22.0,22.0,0.0,1,Y1 Pd3 B3 C0.3
2702,[15456],Y1Pd4.2B3C0.3,Y1Pd4.2B3C0.3,"{'B': 3.0, 'C': 0.30000000000000004, 'Pd': 4.2, 'Y': 1.0}",24.0,24.0,0.0,1,Y1 Pd4.2 B3 C0.3
2703,"[15438, 15455, 15596]",Y1Pd5B3C0.3,Y1Pd5B3C0.3,"{'B': 3.0, 'C': 0.30000000000000004, 'Pd': 5.0, 'Y': 1.0}",23.32,23.1066666667,0.1508494467,3,Y1 Pd5 B3 C0.3
2704,[12989],B3Mo6S8Sn1,B3Mo6S8Sn1,"{'B': 3.0, 'Mo': 6.0, 'S': 8.0, 'Sn': 1.0}",15.0,15.0,0.0,1,B3 Mo6 S8 Sn1
2705,[20658],B3Nb1,B3Nb1,"{'B': 3.0, 'Nb': 1.0}",9.96,9.96,0.0,1,B3 Nb1
2706,[12394],Ti55Nb30Si12B3,Ti55Nb30Si12B3,"{'B': 3.0, 'Nb': 30.0, 'Si': 12.0, 'Ti': 55.0}",5.0,5.0,0.0,1,Ti55 Nb30 Si12 B3
2707,[12395],Ti45Nb40Si12B3,Ti45Nb40Si12B3,"{'B': 3.0, 'Nb': 40.0, 'Si': 12.0, 'Ti': 45.0}",5.4,5.4,0.0,1,Ti45 Nb40 Si12 B3
2708,"[17263, 20286]",B3Re7,B3Re7,"{'B': 3.0, 'Re': 7.0}",3.3,3.19,0.11,2,B3 Re7
2709,"[12998, 20285, 21023, 21024, 25198]",B3Ru7,B3Ru7,"{'B': 3.0, 'Ru': 7.0}",3.38,3.072,0.3208987379,5,B3 Ru7
2710,[21724],Ho1.1Ir4B3.6,Ho1.1Ir4B3.6,"{'B': 3.6, 'Ho': 1.1, 'Ir': 4.0}",2.12,2.12,0.0,1,Ho1.1 Ir4 B3.6
2711,[21686],Dy1Rh3.2Ir0.8B4,Dy1Rh3.2Ir0.8B4,"{'B': 4.0, 'Dy': 1.0, 'Ir': 0.8, 'Rh': 3.2}",1.78,1.78,0.0,1,Dy1 Rh3.2 Ir0.8 B4
2712,[21687],Dy1Rh2.8Ir1.2B4,Dy1Rh2.8Ir1.2B4,"{'B': 4.0, 'Dy': 1.0, 'Ir': 1.2, 'Rh': 2.8}",2.8200000000000003,2.8200000000000003,0.0,1,Dy1 Rh2.8 Ir1.2 B4
2713,[21688],Dy1Rh2.4Ir1.6B4,Dy1Rh2.4Ir1.6B4,"{'B': 4.0, 'Dy': 1.0, 'Ir': 1.6, 'Rh': 2.4}",3.83,3.83,0.0,1,Dy1 Rh2.4 Ir1.6 B4
2714,"[16804, 21689]",Dy1Ir2Rh2B4,Dy1Ir2Rh2B4,"{'B': 4.0, 'Dy': 1.0, 'Ir': 2.0, 'Rh': 2.0}",4.64,4.585,0.055,2,Dy1 Ir2 Rh2 B4
2715,[21690],Dy1Rh1.6Ir2.4B4,Dy1Rh1.6Ir2.4B4,"{'B': 4.0, 'Dy': 1.0, 'Ir': 2.4, 'Rh': 1.6}",4.3,4.3,0.0,1,Dy1 Rh1.6 Ir2.4 B4
2716,[21691],Dy1Rh1.2Ir2.8B4,Dy1Rh1.2Ir2.8B4,"{'B': 4.0, 'Dy': 1.0, 'Ir': 2.8, 'Rh': 1.2}",1.63,1.63,0.0,1,Dy1 Rh1.2 Ir2.8 B4
2717,[21692],Dy1Rh0.8Ir3.2B4,Dy1Rh0.8Ir3.2B4,"{'B': 4.0, 'Dy': 1.0, 'Ir': 3.2, 'Rh': 0.8}",1.17,1.17,0.0,1,Dy1 Rh0.8 Ir3.2 B4
2718,[21693],Dy1Rh0.56Ir3.44B4,Dy1Rh0.56Ir3.44B4,"{'B': 4.0, 'Dy': 1.0, 'Ir': 3.44, 'Rh': 0.56}",1.29,1.29,0.0,1,Dy1 Rh0.56 Ir3.44 B4
2719,"[16279, 21685, 21706]",Er0.11Ho0.89Rh4B4,Er0.11Ho0.89Rh4B4,"{'B': 4.0, 'Er': 0.11, 'Ho': 0.89, 'Rh': 4.0}",5.98,5.8833333333,0.1228368385,3,Er0.11 Ho0.89 Rh4 B4
2720,[21705],Er0.134Ho0.866Rh4B4,Er0.134Ho0.866Rh4B4,"{'B': 4.0, 'Er': 0.134, 'Ho': 0.866, 'Rh': 4.0}",6.15,6.15,0.0,1,Er0.134 Ho0.866 Rh4 B4
2721,[16278],Er0.16Ho0.84Rh4B4,Er0.16Ho0.84Rh4B4,"{'B': 4.0, 'Er': 0.16, 'Ho': 0.84, 'Rh': 4.0}",5.95,5.95,0.0,1,Er0.16 Ho0.84 Rh4 B4
2722,[21676],Y0.83Er0.17Rh4B4,Y0.83Er0.17Rh4B4,"{'B': 4.0, 'Er': 0.17, 'Rh': 4.0, 'Y': 0.8300000000000001}",10.4,10.4,0.0,1,Y0.83 Er0.17 Rh4 B4
2723,[21684],Er0.187Ho0.813Rh4B4,Er0.187Ho0.813Rh4B4,"{'B': 4.0, 'Er': 0.187, 'Ho': 0.8130000000000001, 'Rh': 4.0}",6.43,6.43,0.0,1,Er0.187 Ho0.813 Rh4 B4
2724,[16277],Er0.25Ho0.75Rh4B4,Er0.25Ho0.75Rh4B4,"{'B': 4.0, 'Er': 0.25, 'Ho': 0.75, 'Rh': 4.0}",6.44,6.44,0.0,1,Er0.25 Ho0.75 Rh4 B4
2725,[21677],Y0.71Er0.29Rh4B4,Y0.71Er0.29Rh4B4,"{'B': 4.0, 'Er': 0.29, 'Rh': 4.0, 'Y': 0.71}",10.0,10.0,0.0,1,Y0.71 Er0.29 Rh4 B4
2726,[21678],Y0.56Er0.44Rh4B4,Y0.56Er0.44Rh4B4,"{'B': 4.0, 'Er': 0.44, 'Rh': 4.0, 'Y': 0.56}",9.64,9.64,0.0,1,Y0.56 Er0.44 Rh4 B4
2727,[21704],Er0.46Ho0.54Rh4B4,Er0.46Ho0.54Rh4B4,"{'B': 4.0, 'Er': 0.46, 'Ho': 0.54, 'Rh': 4.0}",7.32,7.32,0.0,1,Er0.46 Ho0.54 Rh4 B4
2728,[21679],Y0.47Er0.53Rh4B4,Y0.47Er0.53Rh4B4,"{'B': 4.0, 'Er': 0.53, 'Rh': 4.0, 'Y': 0.47000000000000003}",9.5,9.5,0.0,1,Y0.47 Er0.53 Rh4 B4
2729,[21670],Er0.72Gd0.28Rh4B4,Er0.72Gd0.28Rh4B4,"{'B': 4.0, 'Er': 0.72, 'Gd': 0.28, 'Rh': 4.0}",2.5,2.5,0.0,1,Er0.72 Gd0.28 Rh4 B4
2730,[21680],Y0.28Er0.72Rh4B4,Y0.28Er0.72Rh4B4,"{'B': 4.0, 'Er': 0.72, 'Rh': 4.0, 'Y': 0.28}",9.05,9.05,0.0,1,Y0.28 Er0.72 Rh4 B4
2731,[21683],Er0.73Ho0.27Rh4B4,Er0.73Ho0.27Rh4B4,"{'B': 4.0, 'Er': 0.73, 'Ho': 0.27, 'Rh': 4.0}",8.06,8.06,0.0,1,Er0.73 Ho0.27 Rh4 B4
2732,[21668],Er0.76Gd0.24Rh4B4,Er0.76Gd0.24Rh4B4,"{'B': 4.0, 'Er': 0.76, 'Gd': 0.24, 'Rh': 4.0}",4.18,4.18,0.0,1,Er0.76 Gd0.24 Rh4 B4
2733,[21703],Er0.79Ho0.21Rh4B4,Er0.79Ho0.21Rh4B4,"{'B': 4.0, 'Er': 0.79, 'Ho': 0.21, 'Rh': 4.0}",8.22,8.22,0.0,1,Er0.79 Ho0.21 Rh4 B4
2734,[21667],Er0.8Gd0.2Rh4B4,Er0.8Gd0.2Rh4B4,"{'B': 4.0, 'Er': 0.8, 'Gd': 0.2, 'Rh': 4.0}",4.41,4.41,0.0,1,Er0.8 Gd0.2 Rh4 B4
2735,[21681],Y0.12Er0.88Rh4B4,Y0.12Er0.88Rh4B4,"{'B': 4.0, 'Er': 0.88, 'Rh': 4.0, 'Y': 0.12}",8.74,8.74,0.0,1,Y0.12 Er0.88 Rh4 B4
2736,[21669],Er0.9Gd0.1Rh4B4,Er0.9Gd0.1Rh4B4,"{'B': 4.0, 'Er': 0.9, 'Gd': 0.1, 'Rh': 4.0}",6.88,6.88,0.0,1,Er0.9 Gd0.1 Rh4 B4
2737,[21666],Er0.91Gd0.09Rh4B4,Er0.91Gd0.09Rh4B4,"{'B': 4.0, 'Er': 0.91, 'Gd': 0.09, 'Rh': 4.0}",6.87,6.87,0.0,1,Er0.91 Gd0.09 Rh4 B4
2738,[21665],Er0.95Gd0.05Rh4B4,Er0.95Gd0.05Rh4B4,"{'B': 4.0, 'Er': 0.9500000000000001, 'Gd': 0.05, 'Rh': 4.0}",7.61,7.61,0.0,1,Er0.95 Gd0.05 Rh4 B4
2739,[21664],Er0.97Gd0.03Rh4B4,Er0.97Gd0.03Rh4B4,"{'B': 4.0, 'Er': 0.97, 'Gd': 0.03, 'Rh': 4.0}",8.06,8.06,0.0,1,Er0.97 Gd0.03 Rh4 B4
2740,[21672],Er0.97Tm0.15Rh4B4,Er0.97Tm0.15Rh4B4,"{'B': 4.0, 'Er': 0.97, 'Rh': 4.0, 'Tm': 0.15}",8.86,8.86,0.0,1,Er0.97 Tm0.15 Rh4 B4
2741,[21673],Er0.97Tm0.3Rh4B4,Er0.97Tm0.3Rh4B4,"{'B': 4.0, 'Er': 0.97, 'Rh': 4.0, 'Tm': 0.30000000000000004}",9.03,9.03,0.0,1,Er0.97 Tm0.3 Rh4 B4
2742,[21663],Er0.98Gd0.02Rh4B4,Er0.98Gd0.02Rh4B4,"{'B': 4.0, 'Er': 0.98, 'Gd': 0.02, 'Rh': 4.0}",8.22,8.22,0.0,1,Er0.98 Gd0.02 Rh4 B4
2743,[21694],Er1Rh3.6Ir0.4B4,Er1Rh3.6Ir0.4B4,"{'B': 4.0, 'Er': 1.0, 'Ir': 0.4, 'Rh': 3.6}",7.95,7.95,0.0,1,Er1 Rh3.6 Ir0.4 B4
2744,[21695],Er1Rh2.4Ir1.6B4,Er1Rh2.4Ir1.6B4,"{'B': 4.0, 'Er': 1.0, 'Ir': 1.6, 'Rh': 2.4}",7.5600000000000005,7.5600000000000005,0.0,1,Er1 Rh2.4 Ir1.6 B4
2745,"[16806, 21696]",Er1Ir2Rh2B4,Er1Ir2Rh2B4,"{'B': 4.0, 'Er': 1.0, 'Ir': 2.0, 'Rh': 2.0}",7.37,7.065,0.305,2,Er1 Ir2 Rh2 B4
2746,[21697],Er1Rh1.6Ir2.4B4,Er1Rh1.6Ir2.4B4,"{'B': 4.0, 'Er': 1.0, 'Ir': 2.4, 'Rh': 1.6}",2.11,2.11,0.0,1,Er1 Rh1.6 Ir2.4 B4
2747,[16796],Er1Ir3.6Rh0.4B4,Er1Ir3.6Rh0.4B4,"{'B': 4.0, 'Er': 1.0, 'Ir': 3.6, 'Rh': 0.4}",1.83,1.83,0.0,1,Er1 Ir3.6 Rh0.4 B4
2748,"[16716, 21722]",Er1Ir4B4,Er1Ir4B4,"{'B': 4.0, 'Er': 1.0, 'Ir': 4.0}",2.34,2.22,0.12,2,Er1 Ir4 B4
2749,"[16711, 16730, 16956, 19280, 20544, 21662, 21671, 21682, 21702, 21707]",Er1Rh4B4,Er1Rh4B4,"{'B': 4.0, 'Er': 1.0, 'Rh': 4.0}",8.76,8.142,1.3079204869,10,Er1 Rh4 B4
2750,[21660],Y0.99Gd0.01Rh4B4,Y0.99Gd0.01Rh4B4,"{'B': 4.0, 'Gd': 0.01, 'Rh': 4.0, 'Y': 0.99}",10.1,10.1,0.0,1,Y0.99 Gd0.01 Rh4 B4
2751,[21661],Y0.9Gd0.1Rh4B4,Y0.9Gd0.1Rh4B4,"{'B': 4.0, 'Gd': 0.1, 'Rh': 4.0, 'Y': 0.9}",8.66,8.66,0.0,1,Y0.9 Gd0.1 Rh4 B4
2752,[21675],Y0.7Gd0.3Rh4B4,Y0.7Gd0.3Rh4B4,"{'B': 4.0, 'Gd': 0.30000000000000004, 'Rh': 4.0, 'Y': 0.7000000000000001}",3.54,3.54,0.0,1,Y0.7 Gd0.3 Rh4 B4
2753,[20882],Lu0.5Ho0.5Rh4B4,Lu0.5Ho0.5Rh4B4,"{'B': 4.0, 'Ho': 0.5, 'Lu': 0.5, 'Rh': 4.0}",8.43,8.43,0.0,1,Lu0.5 Ho0.5 Rh4 B4
2754,[21698],Ho1Rh3.6Ir0.4B4,Ho1Rh3.6Ir0.4B4,"{'B': 4.0, 'Ho': 1.0, 'Ir': 0.4, 'Rh': 3.6}",5.09,5.09,0.0,1,Ho1 Rh3.6 Ir0.4 B4
2755,"[16805, 21699]",Ho1Ir2Rh2B4,Ho1Ir2Rh2B4,"{'B': 4.0, 'Ho': 1.0, 'Ir': 2.0, 'Rh': 2.0}",6.41,6.38,0.03,2,Ho1 Ir2 Rh2 B4
2756,[21700],Ho1Rh1.6Ir2.4B4,Ho1Rh1.6Ir2.4B4,"{'B': 4.0, 'Ho': 1.0, 'Ir': 2.4, 'Rh': 1.6}",2.2,2.2,0.0,1,Ho1 Rh1.6 Ir2.4 B4
2757,[21701],Ho1Rh0.8Ir3.2B4,Ho1Rh0.8Ir3.2B4,"{'B': 4.0, 'Ho': 1.0, 'Ir': 3.2, 'Rh': 0.8}",1.26,1.26,0.0,1,Ho1 Rh0.8 Ir3.2 B4
2758,[16795],Ho1Ir3.6Rh0.4B4,Ho1Ir3.6Rh0.4B4,"{'B': 4.0, 'Ho': 1.0, 'Ir': 3.6, 'Rh': 0.4}",1.9,1.9,0.0,1,Ho1 Ir3.6 Rh0.4 B4
2759,[16715],Ho1Ir4B4,Ho1Ir4B4,"{'B': 4.0, 'Ho': 1.0, 'Ir': 4.0}",2.0,2.0,0.0,1,Ho1 Ir4 B4
2760,[16987],Ho1Rh2.4Ru1.6B4,Ho1Rh2.4Ru1.6B4,"{'B': 4.0, 'Ho': 1.0, 'Rh': 2.4, 'Ru': 1.6}",1.6,1.6,0.0,1,Ho1 Rh2.4 Ru1.6 B4
2761,[16986],Ho1Rh2.6Ru1.4B4,Ho1Rh2.6Ru1.4B4,"{'B': 4.0, 'Ho': 1.0, 'Rh': 2.6, 'Ru': 1.4}",4.68,4.68,0.0,1,Ho1 Rh2.6 Ru1.4 B4
2762,[16985],Ho1Rh3Ru1B4,Ho1Rh3Ru1B4,"{'B': 4.0, 'Ho': 1.0, 'Rh': 3.0, 'Ru': 1.0}",6.35,6.35,0.0,1,Ho1 Rh3 Ru1 B4