,sc_id,supercon_formula,cleaned_formula,material_dict,highest_Tc,average_Tc,std_Tc,entry_count,composition
3385,"[6914, 8996]",Y1Ba1Sr1Cu3O6.98,Y1Ba1Sr1Cu3O6.98,"{'Ba': 1.0, 'Cu': 3.0, 'O': 6.98, 'Sr': 1.0, 'Y': 1.0}",83.6,82.8,0.8,2,Y1 Ba1 Sr1 Cu3 O6.98
3386,[5035],Y0.8Pr0.2Ba1Sr1Cu3O7-z,Y0.8Pr0.2Ba1Sr1Cu3O7,"{'Ba': 1.0, 'Cu': 3.0, 'O': 7.0, 'Pr': 0.2, 'Sr': 1.0, 'Y': 0.8}",69.1,69.1,0.0,1,Y0.8 Pr0.2 Ba1 Sr1 Cu3 O7
3387,[5036],Y0.6Pr0.4Ba1Sr1Cu3O7-z,Y0.6Pr0.4Ba1Sr1Cu3O7,"{'Ba': 1.0, 'Cu': 3.0, 'O': 7.0, 'Pr': 0.4, 'Sr': 1.0, 'Y': 0.6000000000000001}",52.4,52.4,0.0,1,Y0.6 Pr0.4 Ba1 Sr1 Cu3 O7
3388,[5037],Y0.5Pr0.5Ba1Sr1Cu3O7-z,Y0.5Pr0.5Ba1Sr1Cu3O7,"{'Ba': 1.0, 'Cu': 3.0, 'O': 7.0, 'Pr': 0.5, 'Sr': 1.0, 'Y': 0.5}",32.1,32.1,0.0,1,Y0.5 Pr0.5 Ba1 Sr1 Cu3 O7
3389,"[5038, 11209]",Y0.4Pr0.6Ba1Sr1Cu3O7-z,Y0.4Pr0.6Ba1Sr1Cu3O7,"{'Ba': 1.0, 'Cu': 3.0, 'O': 7.0, 'Pr': 0.6000000000000001, 'Sr': 1.0, 'Y': 0.4}",23.0,22.2,0.8,2,Y0.4 Pr0.6 Ba1 Sr1 Cu3 O7
3390,[5039],Y0.35Pr0.65Ba1Sr1Cu3O7-z,Y0.35Pr0.65Ba1Sr1Cu3O7,"{'Ba': 1.0, 'Cu': 3.0, 'O': 7.0, 'Pr': 0.65, 'Sr': 1.0, 'Y': 0.35000000000000003}",17.9,17.9,0.0,1,Y0.35 Pr0.65 Ba1 Sr1 Cu3 O7
3391,"[7162, 10961, 20378]",Y1Ba1Sr1Cu3O7+z,Y1Ba1Sr1Cu3O7,"{'Ba': 1.0, 'Cu': 3.0, 'O': 7.0, 'Sr': 1.0, 'Y': 1.0}",82.7,81.5666666667,0.8013876853,3,Y1 Ba1 Sr1 Cu3 O7
3392,[4476],Y0.4Pr0.6Ba1Sr1Cu3O8.9,Y0.4Pr0.6Ba1Sr1Cu3O8.9,"{'Ba': 1.0, 'Cu': 3.0, 'O': 8.9, 'Pr': 0.6000000000000001, 'Sr': 1.0, 'Y': 0.4}",24.1,24.1,0.0,1,Y0.4 Pr0.6 Ba1 Sr1 Cu3 O8.9
3393,[22703],Ba1Fe1.9Se3,Ba1Fe1.9Se3,"{'Ba': 1.0, 'Fe': 1.9, 'Se': 3.0}",11.0,11.0,0.0,1,Ba1 Fe1.9 Se3
3394,"[25196, 25385, 26037]",Ba1Fe2S3,Ba1Fe2S3,"{'Ba': 1.0, 'Fe': 2.0, 'S': 3.0}",24.0,17.4,5.2332271751,3,Ba1 Fe2 S3
3395,[22592],Ba1Fe2Se3,Ba1Fe2Se3,"{'Ba': 1.0, 'Fe': 2.0, 'Se': 3.0}",11.0,11.0,0.0,1,Ba1 Fe2 Se3
3396,[16979],Ba1Ga0.78Si1.22,Ba1Ga0.78Si1.22,"{'Ba': 1.0, 'Ga': 0.78, 'Si': 1.22}",4.0,4.0,0.0,1,Ba1 Ga0.78 Si1.22
3397,[21239],Ba1Ga1Ge1,Ba1Ga1Ge1,"{'Ba': 1.0, 'Ga': 1.0, 'Ge': 1.0}",2.4,2.4,0.0,1,Ba1 Ga1 Ge1
3398,"[17026, 21237]",Ba1Ga1Si1,Ba1Ga1Si1,"{'Ba': 1.0, 'Ga': 1.0, 'Si': 1.0}",4.2,4.05,0.15,2,Ba1 Ga1 Si1
3399,[22984],Ba1Ni2Ge0.2P1.8,Ba1Ni2Ge0.2P1.8,"{'Ba': 1.0, 'Ge': 0.2, 'Ni': 2.0, 'P': 1.8}",2.59,2.59,0.0,1,Ba1 Ni2 Ge0.2 P1.8
3400,[22983],Ba1Ni2Ge0.4P1.6,Ba1Ni2Ge0.4P1.6,"{'Ba': 1.0, 'Ge': 0.4, 'Ni': 2.0, 'P': 1.6}",2.84,2.84,0.0,1,Ba1 Ni2 Ge0.4 P1.6
3401,[22982],Ba1Ni2Ge0.6P1.4,Ba1Ni2Ge0.6P1.4,"{'Ba': 1.0, 'Ge': 0.6000000000000001, 'Ni': 2.0, 'P': 1.4}",2.45,2.45,0.0,1,Ba1 Ni2 Ge0.6 P1.4
3402,[22981],Ba1Ni2Ge0.8P1.2,Ba1Ni2Ge0.8P1.2,"{'Ba': 1.0, 'Ge': 0.8, 'Ni': 2.0, 'P': 1.2}",1.38,1.38,0.0,1,Ba1 Ni2 Ge0.8 P1.2
3403,[22980],Ba1Ni2Ge1P1,Ba1Ni2Ge1P1,"{'Ba': 1.0, 'Ge': 1.0, 'Ni': 2.0, 'P': 1.0}",0.68,0.68,0.0,1,Ba1 Ni2 Ge1 P1
3404,[20159],Ba1Ge2,Ba1Ge2,"{'Ba': 1.0, 'Ge': 2.0}",4.93,4.93,0.0,1,Ba1 Ge2
3405,[24387],Ba1Ge3,Ba1Ge3,"{'Ba': 1.0, 'Ge': 3.0}",4.0,4.0,0.0,1,Ba1 Ge3
3406,"[20238, 20263, 20621, 24861, 24931, 25036]",Ba1Pt4Ge12,Ba1Pt4Ge12,"{'Ba': 1.0, 'Ge': 12.0, 'Pt': 4.0}",5.35,5.0933333333,0.1690824914,6,Ba1 Pt4 Ge12
3407,[25944],Ba1Re1H9,Ba1Re1H9,"{'Ba': 1.0, 'H': 9.0, 'Re': 1.0}",7.0,7.0,0.0,1,Ba1 Re1 H9
3408,[13014],Ba1Hg1,Ba1Hg1,"{'Ba': 1.0, 'Hg': 1.0}",2.32,2.32,0.0,1,Ba1 Hg1
3409,"[20898, 21100, 22074]",Ba1Ir2P2,Ba1Ir2P2,"{'Ba': 1.0, 'Ir': 2.0, 'P': 2.0}",2.1,2.1,0.0,3,Ba1 Ir2 P2
3410,[25343],Ba1Nb1S3,Ba1Nb1S3,"{'Ba': 1.0, 'Nb': 1.0, 'S': 3.0}",1.8900000000000001,1.8900000000000001,0.0,1,Ba1 Nb1 S3
3411,"[25610, 25611]",Ba1Nb2S5,Ba1Nb2S5,"{'Ba': 1.0, 'Nb': 2.0, 'S': 5.0}",1.09,1.02,0.07,2,Ba1 Nb2 S5
3412,[16566],Ba1Nb2Se5,Ba1Nb2Se5,"{'Ba': 1.0, 'Nb': 2.0, 'Se': 5.0}",2.5,2.5,0.0,1,Ba1 Nb2 Se5
3413,"[20476, 21040, 21396, 22985, 25170]",Ba1Ni2P2,Ba1Ni2P2,"{'Ba': 1.0, 'Ni': 2.0, 'P': 2.0}",3.0,2.718,0.2305992194,5,Ba1 Ni2 P2
3414,[23722],Ba1Ti2Sb1.4Sn0.6O1,Ba1Ti2Sb1.4Sn0.6O1,"{'Ba': 1.0, 'O': 1.0, 'Sb': 1.4, 'Sn': 0.6000000000000001, 'Ti': 2.0}",2.49,2.49,0.0,1,Ba1 Ti2 Sb1.4 Sn0.6 O1
3415,[23721],Ba1Ti2Sb1.6Sn0.4O1,Ba1Ti2Sb1.6Sn0.4O1,"{'Ba': 1.0, 'O': 1.0, 'Sb': 1.6, 'Sn': 0.4, 'Ti': 2.0}",2.31,2.31,0.0,1,Ba1 Ti2 Sb1.6 Sn0.4 O1
3416,[23720],Ba1Ti2Sb1.7Sn0.3O1,Ba1Ti2Sb1.7Sn0.3O1,"{'Ba': 1.0, 'O': 1.0, 'Sb': 1.7000000000000002, 'Sn': 0.30000000000000004, 'Ti': 2.0}",2.2,2.2,0.0,1,Ba1 Ti2 Sb1.7 Sn0.3 O1
3417,[23719],Ba1Ti2Sb1.8Sn0.2O1,Ba1Ti2Sb1.8Sn0.2O1,"{'Ba': 1.0, 'O': 1.0, 'Sb': 1.8, 'Sn': 0.2, 'Ti': 2.0}",2.2,2.2,0.0,1,Ba1 Ti2 Sb1.8 Sn0.2 O1
3418,"[22761, 23023, 23394, 23556, 23648, 23718, 23807]",Ba1Ti2Sb2O1,Ba1Ti2Sb2O1,"{'Ba': 1.0, 'O': 1.0, 'Sb': 2.0, 'Ti': 2.0}",1.48,1.2028571429000001,0.1418967719,7,Ba1 Ti2 Sb2 O1
3419,"[3116, 21980]",Ba1Pb0.75Sb0.25O3-Z,Ba1Pb0.75Sb0.25O3,"{'Ba': 1.0, 'O': 3.0, 'Pb': 0.75, 'Sb': 0.25}",3.5,2.9,0.6000000000000001,2,Ba1 Pb0.75 Sb0.25 O3
3420,[21979],Ba1Pb0.8Sb0.2O3,Ba1Pb0.8Sb0.2O3,"{'Ba': 1.0, 'O': 3.0, 'Pb': 0.8, 'Sb': 0.2}",1.7000000000000002,1.7000000000000002,0.0,1,Ba1 Pb0.8 Sb0.2 O3
3421,[21978],Ba1Pb0.85Sb0.15O3,Ba1Pb0.85Sb0.15O3,"{'Ba': 1.0, 'O': 3.0, 'Pb': 0.85, 'Sb': 0.15}",1.4,1.4,0.0,1,Ba1 Pb0.85 Sb0.15 O3
3422,"[20897, 21101, 22073]",Ba1Rh2P2,Ba1Rh2P2,"{'Ba': 1.0, 'P': 2.0, 'Rh': 2.0}",1.0,1.0,0.0,3,Ba1 Rh2 P2
3423,[24505],Ba1Pd0.2Si1.8,Ba1Pd0.2Si1.8,"{'Ba': 1.0, 'Pd': 0.2, 'Si': 1.8}",2.91,2.91,0.0,1,Ba1 Pd0.2 Si1.8
3424,[24498],Ba1Pd0.3Si1.7,Ba1Pd0.3Si1.7,"{'Ba': 1.0, 'Pd': 0.30000000000000004, 'Si': 1.7000000000000002}",2.9,2.9,0.0,1,Ba1 Pd0.3 Si1.7
3425,[24508],Ba1Pd0.4Si1.6,Ba1Pd0.4Si1.6,"{'Ba': 1.0, 'Pd': 0.4, 'Si': 1.6}",1.11,1.11,0.0,1,Ba1 Pd0.4 Si1.6
3426,[24511],Ba1Pd0.5Si1.5,Ba1Pd0.5Si1.5,"{'Ba': 1.0, 'Pd': 0.5, 'Si': 1.5}",0.6000000000000001,0.6000000000000001,0.0,1,Ba1 Pd0.5 Si1.5
3427,[24499],Ba1Pt0.3Si1.7,Ba1Pt0.3Si1.7,"{'Ba': 1.0, 'Pt': 0.30000000000000004, 'Si': 1.7000000000000002}",2.6,2.6,0.0,1,Ba1 Pt0.3 Si1.7
3428,[25596],Ba1Pt1Sb1,Ba1Pt1Sb1,"{'Ba': 1.0, 'Pt': 1.0, 'Sb': 1.0}",1.6400000000000001,1.6400000000000001,0.0,1,Ba1 Pt1 Sb1
3429,"[21229, 23677]",Ba1Pt1Si3,Ba1Pt1Si3,"{'Ba': 1.0, 'Pt': 1.0, 'Si': 3.0}",2.0,1.875,0.125,2,Ba1 Pt1 Si3
3430,[23980],Ba1Pt2Sb2,Ba1Pt2Sb2,"{'Ba': 1.0, 'Pt': 2.0, 'Sb': 2.0}",1.835,1.835,0.0,1,Ba1 Pt2 Sb2
3431,[13022],Ba1Rh2,Ba1Rh2,"{'Ba': 1.0, 'Rh': 2.0}",6.0,6.0,0.0,1,Ba1 Rh2
3432,"[15538, 15539, 15749, 15750, 16165, 16166]",Ba1Ta2S5,Ba1Ta2S5,"{'Ba': 1.0, 'S': 5.0, 'Ta': 2.0}",3.14,3.01,0.13,6,Ba1 Ta2 S5
3433,[15516],Ba1Si2,Ba1Si2,"{'Ba': 1.0, 'Si': 2.0}",5.3,5.3,0.0,1,Ba1 Si2
3434,[9648],Sm1Ba-1Cu3O6.94,Sm1Ba,"{'Ba': 1.0, 'Sm': 1.0}",86.3,86.3,0.0,1,Sm1 Ba1
3435,[16685],Ba1Sn3,Ba1Sn3,"{'Ba': 1.0, 'Sn': 3.0}",4.3,4.3,0.0,1,Ba1 Sn3
3436,[5998],Ba1.1Sr0.9Cu1.1C0.9O4.9+z,Ba1.1Sr0.9Cu1.1C0.9O4.9,"{'Ba': 1.1, 'C': 0.9, 'Cu': 1.1, 'O': 4.9, 'Sr': 0.9}",26.0,26.0,0.0,1,Ba1.1 Sr0.9 Cu1.1 C0.9 O4.9
3437,[4801],Y0.6Ca0.4Ba1.1La0.9Cu3O7.18,Y0.6Ca0.4Ba1.1La0.9Cu3O7.18,"{'Ba': 1.1, 'Ca': 0.4, 'Cu': 3.0, 'La': 0.9, 'O': 7.18, 'Y': 0.6000000000000001}",47.0,47.0,0.0,1,Y0.6 Ca0.4 Ba1.1 La0.9 Cu3 O7.18
3438,[8788],La1.5Ba1.1Ca0.4Cu3O6.764,La1.5Ba1.1Ca0.4Cu3O6.764,"{'Ba': 1.1, 'Ca': 0.4, 'Cu': 3.0, 'La': 1.5, 'O': 6.764}",25.0,25.0,0.0,1,La1.5 Ba1.1 Ca0.4 Cu3 O6.764
3439,[8789],La1.5Ba1.1Ca0.4Cu3O6.969,La1.5Ba1.1Ca0.4Cu3O6.969,"{'Ba': 1.1, 'Ca': 0.4, 'Cu': 3.0, 'La': 1.5, 'O': 6.969}",40.0,40.0,0.0,1,La1.5 Ba1.1 Ca0.4 Cu3 O6.969
3440,[8790],La1.5Ba1.1Ca0.4Cu3O7.05,La1.5Ba1.1Ca0.4Cu3O7.05,"{'Ba': 1.1, 'Ca': 0.4, 'Cu': 3.0, 'La': 1.5, 'O': 7.05}",55.0,55.0,0.0,1,La1.5 Ba1.1 Ca0.4 Cu3 O7.05
3441,[8791],La1.5Ba1.1Ca0.4Cu3O7.082,La1.5Ba1.1Ca0.4Cu3O7.082,"{'Ba': 1.1, 'Ca': 0.4, 'Cu': 3.0, 'La': 1.5, 'O': 7.082}",62.0,62.0,0.0,1,La1.5 Ba1.1 Ca0.4 Cu3 O7.082
3442,[4804],Y0.5Ca0.5Ba1.1La0.9Cu3O7.15,Y0.5Ca0.5Ba1.1La0.9Cu3O7.15,"{'Ba': 1.1, 'Ca': 0.5, 'Cu': 3.0, 'La': 0.9, 'O': 7.15, 'Y': 0.5}",70.0,70.0,0.0,1,Y0.5 Ca0.5 Ba1.1 La0.9 Cu3 O7.15
3443,[4808],Y0.4Ca0.6Ba1.1La0.9Cu3O7.12,Y0.4Ca0.6Ba1.1La0.9Cu3O7.12,"{'Ba': 1.1, 'Ca': 0.6000000000000001, 'Cu': 3.0, 'La': 0.9, 'O': 7.12, 'Y': 0.4}",82.0,82.0,0.0,1,Y0.4 Ca0.6 Ba1.1 La0.9 Cu3 O7.12
3444,[6634],La1Ba1.1Ca0.9Cu3O7.02,La1Ba1.1Ca0.9Cu3O7.02,"{'Ba': 1.1, 'Ca': 0.9, 'Cu': 3.0, 'La': 1.0, 'O': 7.02}",75.0,75.0,0.0,1,La1 Ba1.1 Ca0.9 Cu3 O7.02
3445,[7421],La1.1Yb0.7Ba1.1Ca1.4Cu5O11.692,La1.1Yb0.7Ba1.1Ca1.4Cu5O11.692,"{'Ba': 1.1, 'Ca': 1.4, 'Cu': 5.0, 'La': 1.1, 'O': 11.692, 'Yb': 0.7000000000000001}",70.0,70.0,0.0,1,La1.1 Yb0.7 Ba1.1 Ca1.4 Cu5 O11.692
3446,"[522, 7829]",Tl1Ba1.1La0.9Cu1O5,Tl1Ba1.1La0.9Cu1O5,"{'Ba': 1.1, 'Cu': 1.0, 'La': 0.9, 'O': 5.0, 'Tl': 1.0}",39.6,39.0,0.6000000000000001,2,Tl1 Ba1.1 La0.9 Cu1 O5
3447,[5228],Ba1.12Sr0.88Cu1.1C0.9O4.9+z,Ba1.12Sr0.88Cu1.1C0.9O4.9,"{'Ba': 1.12, 'C': 0.9, 'Cu': 1.1, 'O': 4.9, 'Sr': 0.88}",35.0,35.0,0.0,1,Ba1.12 Sr0.88 Cu1.1 C0.9 O4.9
3448,[8232],Ca0.4Ba1.15La1.45Cu3O7.12,Ca0.4Ba1.15La1.45Cu3O7.12,"{'Ba': 1.15, 'Ca': 0.4, 'Cu': 3.0, 'La': 1.45, 'O': 7.12}",7.6,7.6,0.0,1,Ca0.4 Ba1.15 La1.45 Cu3 O7.12
3449,[8233],Ca0.4Ba1.15La1.45Cu3O7.21,Ca0.4Ba1.15La1.45Cu3O7.21,"{'Ba': 1.15, 'Ca': 0.4, 'Cu': 3.0, 'La': 1.45, 'O': 7.21}",43.9,43.9,0.0,1,Ca0.4 Ba1.15 La1.45 Cu3 O7.21
3450,[8234],Ca0.4Ba1.15La1.45Cu3O7.23,Ca0.4Ba1.15La1.45Cu3O7.23,"{'Ba': 1.15, 'Ca': 0.4, 'Cu': 3.0, 'La': 1.45, 'O': 7.23}",52.8,52.8,0.0,1,Ca0.4 Ba1.15 La1.45 Cu3 O7.23
3451,[9406],Nd0.7Pr0.3Ba1.15Sr0.85Cu3O7-z,Nd0.7Pr0.3Ba1.15Sr0.85Cu3O7,"{'Ba': 1.15, 'Cu': 3.0, 'Nd': 0.7000000000000001, 'O': 7.0, 'Pr': 0.30000000000000004, 'Sr': 0.85}",38.0,38.0,0.0,1,Nd0.7 Pr0.3 Ba1.15 Sr0.85 Cu3 O7
3452,[2795],Yb0.9Ca0.1Ba1.2Sr0.8Cu4O8,Yb0.9Ca0.1Ba1.2Sr0.8Cu4O8,"{'Ba': 1.2, 'Ca': 0.1, 'Cu': 4.0, 'O': 8.0, 'Sr': 0.8, 'Yb': 0.9}",84.0,84.0,0.0,1,Yb0.9 Ca0.1 Ba1.2 Sr0.8 Cu4 O8
3453,[10991],Hg2Ba1.2Sr0.8Y0.8Ca0.2Cu2O8-z,Hg2Ba1.2Sr0.8Y0.8Ca0.2Cu2O8,"{'Ba': 1.2, 'Ca': 0.2, 'Cu': 2.0, 'Hg': 2.0, 'O': 8.0, 'Sr': 0.8, 'Y': 0.8}",51.0,51.0,0.0,1,Hg2 Ba1.2 Sr0.8 Y0.8 Ca0.2 Cu2 O8
3454,[2242],Pb1Sr0.8Ba1.2Y0.7Ca0.3Cu3O7+Z,Pb1Sr0.8Ba1.2Y0.7Ca0.3Cu3O7,"{'Ba': 1.2, 'Ca': 0.30000000000000004, 'Cu': 3.0, 'O': 7.0, 'Pb': 1.0, 'Sr': 0.8, 'Y': 0.7000000000000001}",78.0,78.0,0.0,1,Pb1 Sr0.8 Ba1.2 Y0.7 Ca0.3 Cu3 O7
3455,[2244],Pb0.8Sr1Ba1.2Y0.7Ca0.3Cu3O7.59,Pb0.8Sr1Ba1.2Y0.7Ca0.3Cu3O7.59,"{'Ba': 1.2, 'Ca': 0.30000000000000004, 'Cu': 3.0, 'O': 7.59, 'Pb': 0.8, 'Sr': 1.0, 'Y': 0.7000000000000001}",40.0,40.0,0.0,1,Pb0.8 Sr1 Ba1.2 Y0.7 Ca0.3 Cu3 O7.59
3456,[2245],Pb0.8Sr1Ba1.2Y0.7Ca0.3Cu3O8.28,Pb0.8Sr1Ba1.2Y0.7Ca0.3Cu3O8.28,"{'Ba': 1.2, 'Ca': 0.30000000000000004, 'Cu': 3.0, 'O': 8.28, 'Pb': 0.8, 'Sr': 1.0, 'Y': 0.7000000000000001}",74.0,74.0,0.0,1,Pb0.8 Sr1 Ba1.2 Y0.7 Ca0.3 Cu3 O8.28
3457,[2246],Pb0.8Sr1Ba1.2Y0.7Ca0.3Cu3O8.35,Pb0.8Sr1Ba1.2Y0.7Ca0.3Cu3O8.35,"{'Ba': 1.2, 'Ca': 0.30000000000000004, 'Cu': 3.0, 'O': 8.35, 'Pb': 0.8, 'Sr': 1.0, 'Y': 0.7000000000000001}",77.0,77.0,0.0,1,Pb0.8 Sr1 Ba1.2 Y0.7 Ca0.3 Cu3 O8.35
3458,[2241],Pb1Sr0.8Ba1.2Y0.7Ca0.3Cu3O8.41,Pb1Sr0.8Ba1.2Y0.7Ca0.3Cu3O8.41,"{'Ba': 1.2, 'Ca': 0.30000000000000004, 'Cu': 3.0, 'O': 8.41, 'Pb': 1.0, 'Sr': 0.8, 'Y': 0.7000000000000001}",42.0,42.0,0.0,1,Pb1 Sr0.8 Ba1.2 Y0.7 Ca0.3 Cu3 O8.41
3459,[2247],Pb0.8Sr0.8Ba1.2Y0.7Ca0.3Cu3.2O8.3,Pb0.8Sr0.8Ba1.2Y0.7Ca0.3Cu3.2O8.3,"{'Ba': 1.2, 'Ca': 0.30000000000000004, 'Cu': 3.2, 'O': 8.3, 'Pb': 0.8, 'Sr': 0.8, 'Y': 0.7000000000000001}",75.0,75.0,0.0,1,Pb0.8 Sr0.8 Ba1.2 Y0.7 Ca0.3 Cu3.2 O8.3
3460,[4800],Y0.6Ca0.4Ba1.2La0.8Cu3O7.15,Y0.6Ca0.4Ba1.2La0.8Cu3O7.15,"{'Ba': 1.2, 'Ca': 0.4, 'Cu': 3.0, 'La': 0.8, 'O': 7.15, 'Y': 0.6000000000000001}",67.0,67.0,0.0,1,Y0.6 Ca0.4 Ba1.2 La0.8 Cu3 O7.15
3461,[4803],Y0.5Ca0.5Ba1.2La0.8Cu3O7.12,Y0.5Ca0.5Ba1.2La0.8Cu3O7.12,"{'Ba': 1.2, 'Ca': 0.5, 'Cu': 3.0, 'La': 0.8, 'O': 7.12, 'Y': 0.5}",82.0,82.0,0.0,1,Y0.5 Ca0.5 Ba1.2 La0.8 Cu3 O7.12
3462,[4807],Y0.4Ca0.6Ba1.2La0.8Cu3O7.07,Y0.4Ca0.6Ba1.2La0.8Cu3O7.07,"{'Ba': 1.2, 'Ca': 0.6000000000000001, 'Cu': 3.0, 'La': 0.8, 'O': 7.07, 'Y': 0.4}",82.0,82.0,0.0,1,Y0.4 Ca0.6 Ba1.2 La0.8 Cu3 O7.07
3463,[6633],La1Ba1.2Ca0.8Cu3O6.95,La1Ba1.2Ca0.8Cu3O6.95,"{'Ba': 1.2, 'Ca': 0.8, 'Cu': 3.0, 'La': 1.0, 'O': 6.95}",74.0,74.0,0.0,1,La1 Ba1.2 Ca0.8 Cu3 O6.95
3464,"[523, 1170, 2151, 7830, 7849]",Tl1Ba1.2La0.8Cu1O5,Tl1Ba1.2La0.8Cu1O5,"{'Ba': 1.2, 'Cu': 1.0, 'La': 0.8, 'O': 5.0, 'Tl': 1.0}",52.0,40.8,7.5341887419999996,5,Tl1 Ba1.2 La0.8 Cu1 O5
3465,[11971],Sr0.8Ba1.2Cu1O3.35,Sr0.8Ba1.2Cu1O3.35,"{'Ba': 1.2, 'Cu': 1.0, 'O': 3.35, 'Sr': 0.8}",50.0,50.0,0.0,1,Sr0.8 Ba1.2 Cu1 O3.35
3466,[45],Y0.8Ba1.2Cu1O4-X,Y0.8Ba1.2Cu1O4,"{'Ba': 1.2, 'Cu': 1.0, 'O': 4.0, 'Y': 0.8}",80.0,80.0,0.0,1,Y0.8 Ba1.2 Cu1 O4
3467,[3121],Dy1Ba1.2Sr0.8Cu3O6.9,Dy1Ba1.2Sr0.8Cu3O6.9,"{'Ba': 1.2, 'Cu': 3.0, 'Dy': 1.0, 'O': 6.9, 'Sr': 0.8}",84.7,84.7,0.0,1,Dy1 Ba1.2 Sr0.8 Cu3 O6.9
3468,[9950],Eu1Ba1.2Pr0.3Sr0.5Cu3O6.89,Eu1Ba1.2Pr0.3Sr0.5Cu3O6.89,"{'Ba': 1.2, 'Cu': 3.0, 'Eu': 1.0, 'O': 6.89, 'Pr': 0.30000000000000004, 'Sr': 0.5}",32.0,32.0,0.0,1,Eu1 Ba1.2 Pr0.3 Sr0.5 Cu3 O6.89
3469,[4176],La1.3Ba1.2Sr0.5Cu3O6.955,La1.3Ba1.2Sr0.5Cu3O6.955,"{'Ba': 1.2, 'Cu': 3.0, 'La': 1.3, 'O': 6.955, 'Sr': 0.5}",38.0,38.0,0.0,1,La1.3 Ba1.2 Sr0.5 Cu3 O6.955
3470,[11693],Nd1Ba1.2Sr0.8Cu3O6.97,Nd1Ba1.2Sr0.8Cu3O6.97,"{'Ba': 1.2, 'Cu': 3.0, 'Nd': 1.0, 'O': 6.97, 'Sr': 0.8}",66.9,66.9,0.0,1,Nd1 Ba1.2 Sr0.8 Cu3 O6.97
3471,[6937],Ba1.2Sr0.8Yb1Cu3O6+z,Ba1.2Sr0.8Yb1Cu3O6,"{'Ba': 1.2, 'Cu': 3.0, 'O': 6.0, 'Sr': 0.8, 'Yb': 1.0}",78.5,78.5,0.0,1,Ba1.2 Sr0.8 Yb1 Cu3 O6
3472,[6942],Ba1.2Sr0.8Yb1Cu3O6.61,Ba1.2Sr0.8Yb1Cu3O6.61,"{'Ba': 1.2, 'Cu': 3.0, 'O': 6.61, 'Sr': 0.8, 'Yb': 1.0}",36.7,36.7,0.0,1,Ba1.2 Sr0.8 Yb1 Cu3 O6.61
3473,[1207],Y1Ba1.2Sr0.8Cu3O6.8,Y1Ba1.2Sr0.8Cu3O6.8,"{'Ba': 1.2, 'Cu': 3.0, 'O': 6.8, 'Sr': 0.8, 'Y': 1.0}",86.0,86.0,0.0,1,Y1 Ba1.2 Sr0.8 Cu3 O6.8
3474,[7998],Y0.6Pr0.4Ba1.2Sr0.8Cu3O6.89,Y0.6Pr0.4Ba1.2Sr0.8Cu3O6.89,"{'Ba': 1.2, 'Cu': 3.0, 'O': 6.89, 'Pr': 0.4, 'Sr': 0.8, 'Y': 0.6000000000000001}",52.0,52.0,0.0,1,Y0.6 Pr0.4 Ba1.2 Sr0.8 Cu3 O6.89
3475,[11208],Y0.4Pr0.6Ba1.2Sr0.8Cu3O7,Y0.4Pr0.6Ba1.2Sr0.8Cu3O7,"{'Ba': 1.2, 'Cu': 3.0, 'O': 7.0, 'Pr': 0.6000000000000001, 'Sr': 0.8, 'Y': 0.4}",15.5,15.5,0.0,1,Y0.4 Pr0.6 Ba1.2 Sr0.8 Cu3 O7
3476,[10381],Y1Ba1.2Sr0.8Cu3O7-z,Y1Ba1.2Sr0.8Cu3O7,"{'Ba': 1.2, 'Cu': 3.0, 'O': 7.0, 'Sr': 0.8, 'Y': 1.0}",80.0,80.0,0.0,1,Y1 Ba1.2 Sr0.8 Cu3 O7
3477,[1198],Y1Ba1.2Sr0.8Cu4O7.9,Y1Ba1.2Sr0.8Cu4O7.9,"{'Ba': 1.2, 'Cu': 4.0, 'O': 7.9, 'Sr': 0.8, 'Y': 1.0}",79.0,79.0,0.0,1,Y1 Ba1.2 Sr0.8 Cu4 O7.9
3478,"[2791, 3821]",Yb1Ba1.2Sr0.8Cu4O8,Yb1Ba1.2Sr0.8Cu4O8,"{'Ba': 1.2, 'Cu': 4.0, 'O': 8.0, 'Sr': 0.8, 'Yb': 1.0}",80.0,80.0,0.0,2,Yb1 Ba1.2 Sr0.8 Cu4 O8
3479,[4411],Ca0.4Ba1.25La1.35Cu3O7.04,Ca0.4Ba1.25La1.35Cu3O7.04,"{'Ba': 1.25, 'Ca': 0.4, 'Cu': 3.0, 'La': 1.35, 'O': 7.04}",21.3,21.3,0.0,1,Ca0.4 Ba1.25 La1.35 Cu3 O7.04
3480,[4412],Ca0.4Ba1.25La1.35Cu3O7.11,Ca0.4Ba1.25La1.35Cu3O7.11,"{'Ba': 1.25, 'Ca': 0.4, 'Cu': 3.0, 'La': 1.35, 'O': 7.11}",47.1,47.1,0.0,1,Ca0.4 Ba1.25 La1.35 Cu3 O7.11
3481,[4413],Ca0.4Ba1.25La1.35Cu3O7.16,Ca0.4Ba1.25La1.35Cu3O7.16,"{'Ba': 1.25, 'Ca': 0.4, 'Cu': 3.0, 'La': 1.35, 'O': 7.16}",63.5,63.5,0.0,1,Ca0.4 Ba1.25 La1.35 Cu3 O7.16
3482,[4414],Ca0.4Ba1.25La1.35Cu3O7.19,Ca0.4Ba1.25La1.35Cu3O7.19,"{'Ba': 1.25, 'Ca': 0.4, 'Cu': 3.0, 'La': 1.35, 'O': 7.19}",72.9,72.9,0.0,1,Ca0.4 Ba1.25 La1.35 Cu3 O7.19
3483,[3215],La1.25Ca0.5Ba1.25Cu3O7.137,La1.25Ca0.5Ba1.25Cu3O7.137,"{'Ba': 1.25, 'Ca': 0.5, 'Cu': 3.0, 'La': 1.25, 'O': 7.1370000000000005}",79.2,79.2,0.0,1,La1.25 Ca0.5 Ba1.25 Cu3 O7.137
3484,[4812],La1Ba1.25Ca0.75Cu3O6.958,La1Ba1.25Ca0.75Cu3O6.958,"{'Ba': 1.25, 'Ca': 0.75, 'Cu': 3.0, 'La': 1.0, 'O': 6.958}",79.9,79.9,0.0,1,La1 Ba1.25 Ca0.75 Cu3 O6.958
3485,"[5516, 5521]",Hg0.7V0.3Ba1.25Sr0.75Cu1O4.6+z,Hg0.7V0.3Ba1.25Sr0.75Cu1O4.6,"{'Ba': 1.25, 'Cu': 1.0, 'Hg': 0.7000000000000001, 'O': 4.6, 'Sr': 0.75, 'V': 0.30000000000000004}",75.0,65.0,10.0,2,Hg0.7 V0.3 Ba1.25 Sr0.75 Cu1 O4.6
3486,[4821],La1Ba1.25Sr0.75Cu3O6.996,La1Ba1.25Sr0.75Cu3O6.996,"{'Ba': 1.25, 'Cu': 3.0, 'La': 1.0, 'O': 6.996, 'Sr': 0.75}",54.1,54.1,0.0,1,La1 Ba1.25 Sr0.75 Cu3 O6.996
3487,[9405],Nd0.7Pr0.3Ba1.25Sr0.75Cu3O7-z,Nd0.7Pr0.3Ba1.25Sr0.75Cu3O7,"{'Ba': 1.25, 'Cu': 3.0, 'Nd': 0.7000000000000001, 'O': 7.0, 'Pr': 0.30000000000000004, 'Sr': 0.75}",34.0,34.0,0.0,1,Nd0.7 Pr0.3 Ba1.25 Sr0.75 Cu3 O7
3488,[4651],Y0.4Pr0.6Ba1.25Sr0.75Cu3O6.92,Y0.4Pr0.6Ba1.25Sr0.75Cu3O6.92,"{'Ba': 1.25, 'Cu': 3.0, 'O': 6.92, 'Pr': 0.6000000000000001, 'Sr': 0.75, 'Y': 0.4}",17.0,17.0,0.0,1,Y0.4 Pr0.6 Ba1.25 Sr0.75 Cu3 O6.92
3489,[4817],Y1Ba1.25Sr0.75Cu3O6.928,Y1Ba1.25Sr0.75Cu3O6.928,"{'Ba': 1.25, 'Cu': 3.0, 'O': 6.928, 'Sr': 0.75, 'Y': 1.0}",85.5,85.5,0.0,1,Y1 Ba1.25 Sr0.75 Cu3 O6.928
3490,[6008],Dy0.5Ca0.5Sr0.7Ba1.3Cu2.6C0.4O7-z,Dy0.5Ca0.5Sr0.7Ba1.3Cu2.6C0.4O7,"{'Ba': 1.3, 'C': 0.4, 'Ca': 0.5, 'Cu': 2.6, 'Dy': 0.5, 'O': 7.0, 'Sr': 0.7000000000000001}",78.0,78.0,0.0,1,Dy0.5 Ca0.5 Sr0.7 Ba1.3 Cu2.6 C0.4 O7
3491,[6010],Er0.5Ca0.5Sr0.7Ba1.3Cu2.6C0.4O7-z,Er0.5Ca0.5Sr0.7Ba1.3Cu2.6C0.4O7,"{'Ba': 1.3, 'C': 0.4, 'Ca': 0.5, 'Cu': 2.6, 'Er': 0.5, 'O': 7.0, 'Sr': 0.7000000000000001}",80.0,80.0,0.0,1,Er0.5 Ca0.5 Sr0.7 Ba1.3 Cu2.6 C0.4 O7
3492,[6007],Gd0.5Ca0.5Sr0.7Ba1.3Cu2.6C0.4O7-z,Gd0.5Ca0.5Sr0.7Ba1.3Cu2.6C0.4O7,"{'Ba': 1.3, 'C': 0.4, 'Ca': 0.5, 'Cu': 2.6, 'Gd': 0.5, 'O': 7.0, 'Sr': 0.7000000000000001}",78.0,78.0,0.0,1,Gd0.5 Ca0.5 Sr0.7 Ba1.3 Cu2.6 C0.4 O7
3493,[6009],Ho0.5Ca0.5Sr0.7Ba1.3Cu2.6C0.4O7-z,Ho0.5Ca0.5Sr0.7Ba1.3Cu2.6C0.4O7,"{'Ba': 1.3, 'C': 0.4, 'Ca': 0.5, 'Cu': 2.6, 'Ho': 0.5, 'O': 7.0, 'Sr': 0.7000000000000001}",79.0,79.0,0.0,1,Ho0.5 Ca0.5 Sr0.7 Ba1.3 Cu2.6 C0.4 O7
3494,[6013],Lu0.5Ca0.5Sr0.7Ba1.3Cu2.6C0.4O7-z,Lu0.5Ca0.5Sr0.7Ba1.3Cu2.6C0.4O7,"{'Ba': 1.3, 'C': 0.4, 'Ca': 0.5, 'Cu': 2.6, 'Lu': 0.5, 'O': 7.0, 'Sr': 0.7000000000000001}",77.0,77.0,0.0,1,Lu0.5 Ca0.5 Sr0.7 Ba1.3 Cu2.6 C0.4 O7
3495,[6004],Nd0.5Ca0.5Sr0.7Ba1.3Cu2.6C0.4O7-z,Nd0.5Ca0.5Sr0.7Ba1.3Cu2.6C0.4O7,"{'Ba': 1.3, 'C': 0.4, 'Ca': 0.5, 'Cu': 2.6, 'Nd': 0.5, 'O': 7.0, 'Sr': 0.7000000000000001}",74.0,74.0,0.0,1,Nd0.5 Ca0.5 Sr0.7 Ba1.3 Cu2.6 C0.4 O7
3496,[6003],Pr0.5Ca0.5Sr0.7Ba1.3Cu2.6C0.4O7-z,Pr0.5Ca0.5Sr0.7Ba1.3Cu2.6C0.4O7,"{'Ba': 1.3, 'C': 0.4, 'Ca': 0.5, 'Cu': 2.6, 'O': 7.0, 'Pr': 0.5, 'Sr': 0.7000000000000001}",30.0,30.0,0.0,1,Pr0.5 Ca0.5 Sr0.7 Ba1.3 Cu2.6 C0.4 O7
3497,[6005],Sm0.5Ca0.5Sr0.7Ba1.3Cu2.6C0.4O7-z,Sm0.5Ca0.5Sr0.7Ba1.3Cu2.6C0.4O7,"{'Ba': 1.3, 'C': 0.4, 'Ca': 0.5, 'Cu': 2.6, 'O': 7.0, 'Sm': 0.5, 'Sr': 0.7000000000000001}",77.0,77.0,0.0,1,Sm0.5 Ca0.5 Sr0.7 Ba1.3 Cu2.6 C0.4 O7
3498,[6011],Tm0.5Ca0.5Sr0.7Ba1.3Cu2.6C0.4O7-z,Tm0.5Ca0.5Sr0.7Ba1.3Cu2.6C0.4O7,"{'Ba': 1.3, 'C': 0.4, 'Ca': 0.5, 'Cu': 2.6, 'O': 7.0, 'Sr': 0.7000000000000001, 'Tm': 0.5}",79.0,79.0,0.0,1,Tm0.5 Ca0.5 Sr0.7 Ba1.3 Cu2.6 C0.4 O7
3499,[6002],Y0.5Ca0.5Sr0.7Ba1.3Cu2.6C0.4O7-z,Y0.5Ca0.5Sr0.7Ba1.3Cu2.6C0.4O7,"{'Ba': 1.3, 'C': 0.4, 'Ca': 0.5, 'Cu': 2.6, 'O': 7.0, 'Sr': 0.7000000000000001, 'Y': 0.5}",79.0,79.0,0.0,1,Y0.5 Ca0.5 Sr0.7 Ba1.3 Cu2.6 C0.4 O7
3500,[6012],Yb0.5Ca0.5Sr0.7Ba1.3Cu2.6C0.4O7-z,Yb0.5Ca0.5Sr0.7Ba1.3Cu2.6C0.4O7,"{'Ba': 1.3, 'C': 0.4, 'Ca': 0.5, 'Cu': 2.6, 'O': 7.0, 'Sr': 0.7000000000000001, 'Yb': 0.5}",78.0,78.0,0.0,1,Yb0.5 Ca0.5 Sr0.7 Ba1.3 Cu2.6 C0.4 O7
3501,[6006],Eu1.5Pr0.5Sr0.7Ba1.3Cu2.6C0.4O7-z,Eu1.5Pr0.5Sr0.7Ba1.3Cu2.6C0.4O7,"{'Ba': 1.3, 'C': 0.4, 'Cu': 2.6, 'Eu': 1.5, 'O': 7.0, 'Pr': 0.5, 'Sr': 0.7000000000000001}",78.0,78.0,0.0,1,Eu1.5 Pr0.5 Sr0.7 Ba1.3 Cu2.6 C0.4 O7
3502,[8784],La1.5Ba1.3Ca0.2Cu3O6.897,La1.5Ba1.3Ca0.2Cu3O6.897,"{'Ba': 1.3, 'Ca': 0.2, 'Cu': 3.0, 'La': 1.5, 'O': 6.897}",16.0,16.0,0.0,1,La1.5 Ba1.3 Ca0.2 Cu3 O6.897
3503,[8785],La1.5Ba1.3Ca0.2Cu3O6.918,La1.5Ba1.3Ca0.2Cu3O6.918,"{'Ba': 1.3, 'Ca': 0.2, 'Cu': 3.0, 'La': 1.5, 'O': 6.918}",25.0,25.0,0.0,1,La1.5 Ba1.3 Ca0.2 Cu3 O6.918
3504,[8786],La1.5Ba1.3Ca0.2Cu3O6.957,La1.5Ba1.3Ca0.2Cu3O6.957,"{'Ba': 1.3, 'Ca': 0.2, 'Cu': 3.0, 'La': 1.5, 'O': 6.957}",35.0,35.0,0.0,1,La1.5 Ba1.3 Ca0.2 Cu3 O6.957
3505,[8787],La1.5Ba1.3Ca0.2Cu3O7.002,La1.5Ba1.3Ca0.2Cu3O7.002,"{'Ba': 1.3, 'Ca': 0.2, 'Cu': 3.0, 'La': 1.5, 'O': 7.002}",16.0,16.0,0.0,1,La1.5 Ba1.3 Ca0.2 Cu3 O7.002
3506,[4796],Y0.7Ca0.3Ba1.3La0.7Cu3O7.16,Y0.7Ca0.3Ba1.3La0.7Cu3O7.16,"{'Ba': 1.3, 'Ca': 0.30000000000000004, 'Cu': 3.0, 'La': 0.7000000000000001, 'O': 7.16, 'Y': 0.7000000000000001}",73.0,73.0,0.0,1,Y0.7 Ca0.3 Ba1.3 La0.7 Cu3 O7.16