,sc_id,supercon_formula,cleaned_formula,material_dict,highest_Tc,average_Tc,std_Tc,entry_count,composition
4724,"[8937, 20024]",Ba2Ca2.85Mg0.15Cu5O12-z,Ba2Ca2.85Mg0.15Cu5O12,"{'Ba': 2.0, 'Ca': 2.85, 'Cu': 5.0, 'Mg': 0.15, 'O': 12.0}",116.6,116.6,0.0,2,Ba2 Ca2.85 Mg0.15 Cu5 O12
4725,[20386],Tl0.5Ba2Ca3Cu1Zn3.5O12-z,Tl0.5Ba2Ca3Cu1Zn3.5O12,"{'Ba': 2.0, 'Ca': 3.0, 'Cu': 1.0, 'O': 12.0, 'Tl': 0.5, 'Zn': 3.5}",122.2,122.2,0.0,1,Tl0.5 Ba2 Ca3 Cu1 Zn3.5 O12
4726,[20385],Tl0.5Ba2Ca3Cu1.5Zn3O12-z,Tl0.5Ba2Ca3Cu1.5Zn3O12,"{'Ba': 2.0, 'Ca': 3.0, 'Cu': 1.5, 'O': 12.0, 'Tl': 0.5, 'Zn': 3.0}",121.3,121.3,0.0,1,Tl0.5 Ba2 Ca3 Cu1.5 Zn3 O12
4727,[20384],Tl0.5Ba2Ca3Cu2Zn2.5O12-z,Tl0.5Ba2Ca3Cu2Zn2.5O12,"{'Ba': 2.0, 'Ca': 3.0, 'Cu': 2.0, 'O': 12.0, 'Tl': 0.5, 'Zn': 2.5}",119.8,119.8,0.0,1,Tl0.5 Ba2 Ca3 Cu2 Zn2.5 O12
4728,[20383],Tl0.5Ba2Ca3Cu2.5Zn2O12-z,Tl0.5Ba2Ca3Cu2.5Zn2O12,"{'Ba': 2.0, 'Ca': 3.0, 'Cu': 2.5, 'O': 12.0, 'Tl': 0.5, 'Zn': 2.0}",115.3,115.3,0.0,1,Tl0.5 Ba2 Ca3 Cu2.5 Zn2 O12
4729,[20382],Tl0.5Ba2Ca3Cu3Zn1.5O12-z,Tl0.5Ba2Ca3Cu3Zn1.5O12,"{'Ba': 2.0, 'Ca': 3.0, 'Cu': 3.0, 'O': 12.0, 'Tl': 0.5, 'Zn': 1.5}",113.3,113.3,0.0,1,Tl0.5 Ba2 Ca3 Cu3 Zn1.5 O12
4730,[20381],Tl0.5Ba2Ca3Cu3.5Zn1O12-z,Tl0.5Ba2Ca3Cu3.5Zn1O12,"{'Ba': 2.0, 'Ca': 3.0, 'Cu': 3.5, 'O': 12.0, 'Tl': 0.5, 'Zn': 1.0}",112.5,112.5,0.0,1,Tl0.5 Ba2 Ca3 Cu3.5 Zn1 O12
4731,[10126],Ba2Ca3Cu4F1O8.2+z,Ba2Ca3Cu4F1O8.2,"{'Ba': 2.0, 'Ca': 3.0, 'Cu': 4.0, 'F': 1.0, 'O': 8.2}",104.0,104.0,0.0,1,Ba2 Ca3 Cu4 F1 O8.2
4732,[21171],Ba2Ca3Cu4F1O9.0,Ba2Ca3Cu4F1O9.0,"{'Ba': 2.0, 'Ca': 3.0, 'Cu': 4.0, 'F': 1.0, 'O': 9.0}",103.0,103.0,0.0,1,Ba2 Ca3 Cu4 F1 O9
4733,[10127],Ba2Ca3Cu4F1.2O8.2+z,Ba2Ca3Cu4F1.2O8.2,"{'Ba': 2.0, 'Ca': 3.0, 'Cu': 4.0, 'F': 1.2, 'O': 8.2}",101.0,101.0,0.0,1,Ba2 Ca3 Cu4 F1.2 O8.2
4734,"[21156, 21172]",Ba2Ca3Cu4F1.2O8.8,Ba2Ca3Cu4F1.2O8.8,"{'Ba': 2.0, 'Ca': 3.0, 'Cu': 4.0, 'F': 1.2, 'O': 8.8}",105.0,103.5,1.5,2,Ba2 Ca3 Cu4 F1.2 O8.8
4735,[10128],Ba2Ca3Cu4F1.4O8.2+z,Ba2Ca3Cu4F1.4O8.2,"{'Ba': 2.0, 'Ca': 3.0, 'Cu': 4.0, 'F': 1.4, 'O': 8.2}",97.0,97.0,0.0,1,Ba2 Ca3 Cu4 F1.4 O8.2
4736,"[21157, 21173]",Ba2Ca3Cu4F1.4O8.6,Ba2Ca3Cu4F1.4O8.6,"{'Ba': 2.0, 'Ca': 3.0, 'Cu': 4.0, 'F': 1.4, 'O': 8.6}",91.0,91.0,0.0,2,Ba2 Ca3 Cu4 F1.4 O8.6
4737,"[21158, 21174]",Ba2Ca3Cu4F1.6O8.4,Ba2Ca3Cu4F1.6O8.4,"{'Ba': 2.0, 'Ca': 3.0, 'Cu': 4.0, 'F': 1.6, 'O': 8.4}",79.0,78.0,1.0,2,Ba2 Ca3 Cu4 F1.6 O8.4
4738,[21175],Ba2Ca3Cu4F1.8O8.2,Ba2Ca3Cu4F1.8O8.2,"{'Ba': 2.0, 'Ca': 3.0, 'Cu': 4.0, 'F': 1.8, 'O': 8.2}",66.0,66.0,0.0,1,Ba2 Ca3 Cu4 F1.8 O8.2
4739,"[11144, 20033, 21159, 21176]",Ba2Ca3Cu4F2O8,Ba2Ca3Cu4F2O8,"{'Ba': 2.0, 'Ca': 3.0, 'Cu': 4.0, 'F': 2.0, 'O': 8.0}",70.0,59.0,6.3639610307,4,Ba2 Ca3 Cu4 F2 O8
4740,[5213],Hg1Ba2Ca3Cu4O1,Hg1Ba2Ca3Cu4O1,"{'Ba': 2.0, 'Ca': 3.0, 'Cu': 4.0, 'Hg': 1.0, 'O': 1.0}",115.0,115.0,0.0,1,Hg1 Ba2 Ca3 Cu4 O1
4741,[5214],Hg1Ba2Ca3Cu4O2,Hg1Ba2Ca3Cu4O2,"{'Ba': 2.0, 'Ca': 3.0, 'Cu': 4.0, 'Hg': 1.0, 'O': 2.0}",115.0,115.0,0.0,1,Hg1 Ba2 Ca3 Cu4 O2
4742,"[3791, 4281, 4579, 5568, 8804, 8805]",Hg1Ba2Ca3Cu4O10+z,Hg1Ba2Ca3Cu4O10,"{'Ba': 2.0, 'Ca': 3.0, 'Cu': 4.0, 'Hg': 1.0, 'O': 10.0}",127.0,124.1666666667,3.7155828016,6,Hg1 Ba2 Ca3 Cu4 O10
4743,[8339],Hg1Tl1Ba2Ca3Cu4O12,Hg1Tl1Ba2Ca3Cu4O12,"{'Ba': 2.0, 'Ca': 3.0, 'Cu': 4.0, 'Hg': 1.0, 'O': 12.0, 'Tl': 1.0}",110.0,110.0,0.0,1,Hg1 Tl1 Ba2 Ca3 Cu4 O12
4744,[19941],Ba2Ca3Cu4O10.35,Ba2Ca3Cu4O10.35,"{'Ba': 2.0, 'Ca': 3.0, 'Cu': 4.0, 'O': 10.35}",116.0,116.0,0.0,1,Ba2 Ca3 Cu4 O10.35
4745,"[3607, 19933]",Tl1Ba2Ca3Cu4O11,Tl1Ba2Ca3Cu4O11,"{'Ba': 2.0, 'Ca': 3.0, 'Cu': 4.0, 'O': 11.0, 'Tl': 1.0}",122.1,118.05,4.05,2,Tl1 Ba2 Ca3 Cu4 O11
4746,[3298],Tl1.4Ba2Ca3Cu4O11.4,Tl1.4Ba2Ca3Cu4O11.4,"{'Ba': 2.0, 'Ca': 3.0, 'Cu': 4.0, 'O': 11.4, 'Tl': 1.4}",118.0,118.0,0.0,1,Tl1.4 Ba2 Ca3 Cu4 O11.4
4747,[20380],Tl0.5Ba2Ca3Cu4Zn0.5O12-z,Tl0.5Ba2Ca3Cu4Zn0.5O12,"{'Ba': 2.0, 'Ca': 3.0, 'Cu': 4.0, 'O': 12.0, 'Tl': 0.5, 'Zn': 0.5}",110.5,110.5,0.0,1,Tl0.5 Ba2 Ca3 Cu4 Zn0.5 O12
4748,"[2747, 3297]",Tl2Ba2Ca3Cu4O12,Tl2Ba2Ca3Cu4O12,"{'Ba': 2.0, 'Ca': 3.0, 'Cu': 4.0, 'O': 12.0, 'Tl': 2.0}",120.0,114.5,5.5,2,Tl2 Ba2 Ca3 Cu4 O12
4749,[20379],Tl0.5Ba2Ca3Cu4.5O12-z,Tl0.5Ba2Ca3Cu4.5O12,"{'Ba': 2.0, 'Ca': 3.0, 'Cu': 4.5, 'O': 12.0, 'Tl': 0.5}",108.5,108.5,0.0,1,Tl0.5 Ba2 Ca3 Cu4.5 O12
4750,[3440],Ba2Ca3Cu5O,Ba2Ca3Cu5O,"{'Ba': 2.0, 'Ca': 3.0, 'Cu': 5.0, 'O': 1.0}",106.0,106.0,0.0,1,Ba2 Ca3 Cu5 O1
4751,[3376],Ba2Ca3Cu5O10+z,Ba2Ca3Cu5O10,"{'Ba': 2.0, 'Ca': 3.0, 'Cu': 5.0, 'O': 10.0}",80.0,80.0,0.0,1,Ba2 Ca3 Cu5 O10
4752,[8552],Ba2Ca3Cu5O11-y,Ba2Ca3Cu5O11,"{'Ba': 2.0, 'Ca': 3.0, 'Cu': 5.0, 'O': 11.0}",115.9,115.9,0.0,1,Ba2 Ca3 Cu5 O11
4753,"[3482, 3957, 8941, 20021, 20028]",Cu5Ba2Ca3O12-z,Cu5Ba2Ca3O12,"{'Ba': 2.0, 'Ca': 3.0, 'Cu': 5.0, 'O': 12.0}",117.5,116.72,0.6462197769,5,Cu5 Ba2 Ca3 O12
4754,[8081],Tl1.6Ba2Ca3.3Cu4O11.89,Tl1.6Ba2Ca3.3Cu4O11.89,"{'Ba': 2.0, 'Ca': 3.3, 'Cu': 4.0, 'O': 11.89, 'Tl': 1.6}",103.0,103.0,0.0,1,Tl1.6 Ba2 Ca3.3 Cu4 O11.89
4755,[10130],Ba2Ca4Cu5F1O10+z,Ba2Ca4Cu5F1O10,"{'Ba': 2.0, 'Ca': 4.0, 'Cu': 5.0, 'F': 1.0, 'O': 10.0}",90.0,90.0,0.0,1,Ba2 Ca4 Cu5 F1 O10
4756,[4439],Hg0.5Pb0.5Ba2Ca4Cu5O12.5,Hg0.5Pb0.5Ba2Ca4Cu5O12.5,"{'Ba': 2.0, 'Ca': 4.0, 'Cu': 5.0, 'Hg': 0.5, 'O': 12.5, 'Pb': 0.5}",110.0,110.0,0.0,1,Hg0.5 Pb0.5 Ba2 Ca4 Cu5 O12.5
4757,"[4551, 4552]",Hg1Ba2Ca4Cu5O12+z,Hg1Ba2Ca4Cu5O12,"{'Ba': 2.0, 'Ca': 4.0, 'Cu': 5.0, 'Hg': 1.0, 'O': 12.0}",110.0,105.0,5.0,2,Hg1 Ba2 Ca4 Cu5 O12
4758,[8340],Hg1Tl1Ba2Ca4Cu5O14,Hg1Tl1Ba2Ca4Cu5O14,"{'Ba': 2.0, 'Ca': 4.0, 'Cu': 5.0, 'Hg': 1.0, 'O': 14.0, 'Tl': 1.0}",90.0,90.0,0.0,1,Hg1 Tl1 Ba2 Ca4 Cu5 O14
4759,[2748],Tl2Ba2Ca4Cu5O14,Tl2Ba2Ca4Cu5O14,"{'Ba': 2.0, 'Ca': 4.0, 'Cu': 5.0, 'O': 14.0, 'Tl': 2.0}",124.0,124.0,0.0,1,Tl2 Ba2 Ca4 Cu5 O14
4760,[3377],Ba2Ca4Cu6O12+z,Ba2Ca4Cu6O12,"{'Ba': 2.0, 'Ca': 4.0, 'Cu': 6.0, 'O': 12.0}",95.0,95.0,0.0,1,Ba2 Ca4 Cu6 O12
4761,[20022],Ba2Ca4Cu6O14-z,Ba2Ca4Cu6O14,"{'Ba': 2.0, 'Ca': 4.0, 'Cu': 6.0, 'O': 14.0}",102.0,102.0,0.0,1,Ba2 Ca4 Cu6 O14
4762,"[4553, 4554]",Hg1Ba2Ca5Cu6O14+z,Hg1Ba2Ca5Cu6O14,"{'Ba': 2.0, 'Ca': 5.0, 'Cu': 6.0, 'Hg': 1.0, 'O': 14.0}",107.0,103.5,3.5,2,Hg1 Ba2 Ca5 Cu6 O14
4763,[2749],Tl2Ba2Ca5Cu6O16,Tl2Ba2Ca5Cu6O16,"{'Ba': 2.0, 'Ca': 5.0, 'Cu': 6.0, 'O': 16.0, 'Tl': 2.0}",120.0,120.0,0.0,1,Tl2 Ba2 Ca5 Cu6 O16
4764,[3378],Ba2Ca5Cu7O14+z,Ba2Ca5Cu7O14,"{'Ba': 2.0, 'Ca': 5.0, 'Cu': 7.0, 'O': 14.0}",120.0,120.0,0.0,1,Ba2 Ca5 Cu7 O14
4765,[20023],Ba2Ca5Cu7O16-z,Ba2Ca5Cu7O16,"{'Ba': 2.0, 'Ca': 5.0, 'Cu': 7.0, 'O': 16.0}",78.0,78.0,0.0,1,Ba2 Ca5 Cu7 O16
4766,[6203],Y0.7Pr0.2Cd0.1Ba2Cu3O7-Z,Y0.7Pr0.2Cd0.1Ba2Cu3O7,"{'Ba': 2.0, 'Cd': 0.1, 'Cu': 3.0, 'O': 7.0, 'Pr': 0.2, 'Y': 0.7000000000000001}",59.0,59.0,0.0,1,Y0.7 Pr0.2 Cd0.1 Ba2 Cu3 O7
4767,[2813],Y0.9Cd0.1Ba2Cu3O7,Y0.9Cd0.1Ba2Cu3O7,"{'Ba': 2.0, 'Cd': 0.1, 'Cu': 3.0, 'O': 7.0, 'Y': 0.9}",89.9,89.9,0.0,1,Y0.9 Cd0.1 Ba2 Cu3 O7
4768,[6291],Y0.6Pr0.2Cd0.2Ba2Cu3O7-Z,Y0.6Pr0.2Cd0.2Ba2Cu3O7,"{'Ba': 2.0, 'Cd': 0.2, 'Cu': 3.0, 'O': 7.0, 'Pr': 0.2, 'Y': 0.6000000000000001}",49.0,49.0,0.0,1,Y0.6 Pr0.2 Cd0.2 Ba2 Cu3 O7
4769,[2814],Y0.8Cd0.2Ba2Cu3O7,Y0.8Cd0.2Ba2Cu3O7,"{'Ba': 2.0, 'Cd': 0.2, 'Cu': 3.0, 'O': 7.0, 'Y': 0.8}",92.8,92.8,0.0,1,Y0.8 Cd0.2 Ba2 Cu3 O7
4770,[1773],Tl1.75Cd0.25Ba2Cu1O6,Tl1.75Cd0.25Ba2Cu1O6,"{'Ba': 2.0, 'Cd': 0.25, 'Cu': 1.0, 'O': 6.0, 'Tl': 1.75}",88.0,88.0,0.0,1,Tl1.75 Cd0.25 Ba2 Cu1 O6
4771,[6204],Y0.5Pr0.2Cd0.3Ba2Cu3O7-Z,Y0.5Pr0.2Cd0.3Ba2Cu3O7,"{'Ba': 2.0, 'Cd': 0.30000000000000004, 'Cu': 3.0, 'O': 7.0, 'Pr': 0.2, 'Y': 0.5}",42.0,42.0,0.0,1,Y0.5 Pr0.2 Cd0.3 Ba2 Cu3 O7
4772,[2815],Y0.7Cd0.3Ba2Cu3O7,Y0.7Cd0.3Ba2Cu3O7,"{'Ba': 2.0, 'Cd': 0.30000000000000004, 'Cu': 3.0, 'O': 7.0, 'Y': 0.7000000000000001}",92.8,92.8,0.0,1,Y0.7 Cd0.3 Ba2 Cu3 O7
4773,[2816],Y0.6Cd0.4Ba2Cu3O7,Y0.6Cd0.4Ba2Cu3O7,"{'Ba': 2.0, 'Cd': 0.4, 'Cu': 3.0, 'O': 7.0, 'Y': 0.6000000000000001}",91.7,91.7,0.0,1,Y0.6 Cd0.4 Ba2 Cu3 O7
4774,[2817],Y0.5Cd0.5Ba2Cu3O7,Y0.5Cd0.5Ba2Cu3O7,"{'Ba': 2.0, 'Cd': 0.5, 'Cu': 3.0, 'O': 7.0, 'Y': 0.5}",93.2,93.2,0.0,1,Y0.5 Cd0.5 Ba2 Cu3 O7
4775,[2818],Y0.4Cd0.6Ba2Cu3O7,Y0.4Cd0.6Ba2Cu3O7,"{'Ba': 2.0, 'Cd': 0.6000000000000001, 'Cu': 3.0, 'O': 7.0, 'Y': 0.4}",91.7,91.7,0.0,1,Y0.4 Cd0.6 Ba2 Cu3 O7
4776,[2819],Y0.3Cd0.7Ba2Cu3O7,Y0.3Cd0.7Ba2Cu3O7,"{'Ba': 2.0, 'Cd': 0.7000000000000001, 'Cu': 3.0, 'O': 7.0, 'Y': 0.30000000000000004}",87.0,87.0,0.0,1,Y0.3 Cd0.7 Ba2 Cu3 O7
4777,[2820],Y0.25Cd0.75Ba2Cu3O7,Y0.25Cd0.75Ba2Cu3O7,"{'Ba': 2.0, 'Cd': 0.75, 'Cu': 3.0, 'O': 7.0, 'Y': 0.25}",53.2,53.2,0.0,1,Y0.25 Cd0.75 Ba2 Cu3 O7
4778,[5097],Hg0.95Ce0.05Ba2Cu1O4+z,Hg0.95Ce0.05Ba2Cu1O4,"{'Ba': 2.0, 'Ce': 0.05, 'Cu': 1.0, 'Hg': 0.9500000000000001, 'O': 4.0}",94.0,94.0,0.0,1,Hg0.95 Ce0.05 Ba2 Cu1 O4
4779,[5098],Hg0.9Ce0.1Ba2Cu1O4+z,Hg0.9Ce0.1Ba2Cu1O4,"{'Ba': 2.0, 'Ce': 0.1, 'Cu': 1.0, 'Hg': 0.9, 'O': 4.0}",96.0,96.0,0.0,1,Hg0.9 Ce0.1 Ba2 Cu1 O4
4780,[3427],Lu0.9Ce0.1Ba2Cu3O7-z,Lu0.9Ce0.1Ba2Cu3O7,"{'Ba': 2.0, 'Ce': 0.1, 'Cu': 3.0, 'Lu': 0.9, 'O': 7.0}",60.0,60.0,0.0,1,Lu0.9 Ce0.1 Ba2 Cu3 O7
4781,[3268],Dy0.9Ce0.1Ba2Cu4O8,Dy0.9Ce0.1Ba2Cu4O8,"{'Ba': 2.0, 'Ce': 0.1, 'Cu': 4.0, 'Dy': 0.9, 'O': 8.0}",44.0,44.0,0.0,1,Dy0.9 Ce0.1 Ba2 Cu4 O8
4782,"[3266, 3861, 6801]",Y0.9Ce0.1Ba2Cu4O8,Y0.9Ce0.1Ba2Cu4O8,"{'Ba': 2.0, 'Ce': 0.1, 'Cu': 4.0, 'O': 8.0, 'Y': 0.9}",56.5,49.8333333333,8.3898086324,3,Y0.9 Ce0.1 Ba2 Cu4 O8
4783,[5099],Hg0.8Ce0.2Ba2Cu1O4+z,Hg0.8Ce0.2Ba2Cu1O4,"{'Ba': 2.0, 'Ce': 0.2, 'Cu': 1.0, 'Hg': 0.8, 'O': 4.0}",94.0,94.0,0.0,1,Hg0.8 Ce0.2 Ba2 Cu1 O4
4784,[5100],Hg0.7Ce0.3Ba2Cu1O4+z,Hg0.7Ce0.3Ba2Cu1O4,"{'Ba': 2.0, 'Ce': 0.30000000000000004, 'Cu': 1.0, 'Hg': 0.7000000000000001, 'O': 4.0}",94.0,94.0,0.0,1,Hg0.7 Ce0.3 Ba2 Cu1 O4
4785,[92],Y1Ba2Cu3Cl1O6,Y1Ba2Cu3Cl1O6,"{'Ba': 2.0, 'Cl': 1.0, 'Cu': 3.0, 'O': 6.0, 'Y': 1.0}",72.0,72.0,0.0,1,Y1 Ba2 Cu3 Cl1 O6
4786,[9997],Hg1Ba2Cu0.99Co0.01O4+z,Hg1Ba2Cu0.99Co0.01O4,"{'Ba': 2.0, 'Co': 0.01, 'Cu': 0.99, 'Hg': 1.0, 'O': 4.0}",96.0,96.0,0.0,1,Hg1 Ba2 Cu0.99 Co0.01 O4
4787,[8142],Er1Ba2Cu2.985Co0.015O7-d,Er1Ba2Cu2.985Co0.015O7,"{'Ba': 2.0, 'Co': 0.015, 'Cu': 2.985, 'Er': 1.0, 'O': 7.0}",89.0,89.0,0.0,1,Er1 Ba2 Cu2.985 Co0.015 O7
4788,[9998],Hg1Ba2Cu0.98Co0.02O4+z,Hg1Ba2Cu0.98Co0.02O4,"{'Ba': 2.0, 'Co': 0.02, 'Cu': 0.98, 'Hg': 1.0, 'O': 4.0}",96.0,96.0,0.0,1,Hg1 Ba2 Cu0.98 Co0.02 O4
4789,[234],Y1Ba2Cu2.98Co0.02O6.9,Y1Ba2Cu2.98Co0.02O6.9,"{'Ba': 2.0, 'Co': 0.02, 'Cu': 2.98, 'O': 6.9, 'Y': 1.0}",93.4,93.4,0.0,1,Y1 Ba2 Cu2.98 Co0.02 O6.9
4790,[4242],Y1Ba2Cu3.98Co0.02O8,Y1Ba2Cu3.98Co0.02O8,"{'Ba': 2.0, 'Co': 0.02, 'Cu': 3.98, 'O': 8.0, 'Y': 1.0}",73.3,73.3,0.0,1,Y1 Ba2 Cu3.98 Co0.02 O8
4791,[9999],Hg1Ba2Cu0.97Co0.03O4+z,Hg1Ba2Cu0.97Co0.03O4,"{'Ba': 2.0, 'Co': 0.03, 'Cu': 0.97, 'Hg': 1.0, 'O': 4.0}",94.0,94.0,0.0,1,Hg1 Ba2 Cu0.97 Co0.03 O4
4792,[7905],Y1Ba2Cu0.97Co0.03O7-d,Y1Ba2Cu0.97Co0.03O7,"{'Ba': 2.0, 'Co': 0.03, 'Cu': 0.97, 'O': 7.0, 'Y': 1.0}",90.7,90.7,0.0,1,Y1 Ba2 Cu0.97 Co0.03 O7
4793,[407],Y1Ba2Cu2.97Co0.03O6.96,Y1Ba2Cu2.97Co0.03O6.96,"{'Ba': 2.0, 'Co': 0.03, 'Cu': 2.9699999999999998, 'O': 6.96, 'Y': 1.0}",92.0,92.0,0.0,1,Y1 Ba2 Cu2.97 Co0.03 O6.96
4794,[2189],Y1Ba2Cu2.97Co0.03O7+Z,Y1Ba2Cu2.97Co0.03O7,"{'Ba': 2.0, 'Co': 0.03, 'Cu': 2.9699999999999998, 'O': 7.0, 'Y': 1.0}",90.5,90.5,0.0,1,Y1 Ba2 Cu2.97 Co0.03 O7
4795,"[10383, 11009]",Y1Ba2Cu2.961Co0.039O7-z,Y1Ba2Cu2.961Co0.039O7,"{'Ba': 2.0, 'Co': 0.039, 'Cu': 2.961, 'O': 7.0, 'Y': 1.0}",93.0,93.0,0.0,2,Y1 Ba2 Cu2.961 Co0.039 O7
4796,[11003],Y1Ba2Cu2.96Co0.04O7,Y1Ba2Cu2.96Co0.04O7,"{'Ba': 2.0, 'Co': 0.04, 'Cu': 2.96, 'O': 7.0, 'Y': 1.0}",91.5,91.5,0.0,1,Y1 Ba2 Cu2.96 Co0.04 O7
4797,"[2954, 4243, 21528]",Y1Ba2Cu3.96Co0.04O8,Y1Ba2Cu3.96Co0.04O8,"{'Ba': 2.0, 'Co': 0.04, 'Cu': 3.96, 'O': 8.0, 'Y': 1.0}",68.5,62.9666666667,4.3399948797,3,Y1 Ba2 Cu3.96 Co0.04 O8
4798,[3799],Y1Ba2Cu2.955Co0.045O7-z,Y1Ba2Cu2.955Co0.045O7,"{'Ba': 2.0, 'Co': 0.045, 'Cu': 2.955, 'O': 7.0, 'Y': 1.0}",94.4,94.4,0.0,1,Y1 Ba2 Cu2.955 Co0.045 O7
4799,[4349],La1Ba2Cu2.95Co0.05O6.94,La1Ba2Cu2.95Co0.05O6.94,"{'Ba': 2.0, 'Co': 0.05, 'Cu': 2.95, 'La': 1.0, 'O': 6.94}",40.5,40.5,0.0,1,La1 Ba2 Cu2.95 Co0.05 O6.94
4800,[580],Y1Ba2Cu2.95Co0.05O6.88,Y1Ba2Cu2.95Co0.05O6.88,"{'Ba': 2.0, 'Co': 0.05, 'Cu': 2.95, 'O': 6.88, 'Y': 1.0}",91.2,91.2,0.0,1,Y1 Ba2 Cu2.95 Co0.05 O6.88
4801,[235],Y1Ba2Cu2.95Co0.05O6.92,Y1Ba2Cu2.95Co0.05O6.92,"{'Ba': 2.0, 'Co': 0.05, 'Cu': 2.95, 'O': 6.92, 'Y': 1.0}",94.3,94.3,0.0,1,Y1 Ba2 Cu2.95 Co0.05 O6.92
4802,[3602],Y1Ba2Cu2.949Co0.051O7-z,Y1Ba2Cu2.949Co0.051O7,"{'Ba': 2.0, 'Co': 0.051000000000000004, 'Cu': 2.949, 'O': 7.0, 'Y': 1.0}",81.0,81.0,0.0,1,Y1 Ba2 Cu2.949 Co0.051 O7
4803,"[7906, 7910]",Y1Ba2Cu0.94Co0.06O7-d,Y1Ba2Cu0.94Co0.06O7,"{'Ba': 2.0, 'Co': 0.06, 'Cu': 0.9400000000000001, 'O': 7.0, 'Y': 1.0}",89.7,89.2,0.5,2,Y1 Ba2 Cu0.94 Co0.06 O7
4804,"[5028, 5074]",Er1Ba2Cu2.94Co0.06O6.8,Er1Ba2Cu2.94Co0.06O6.8,"{'Ba': 2.0, 'Co': 0.06, 'Cu': 2.94, 'Er': 1.0, 'O': 6.8}",73.0,73.0,0.0,2,Er1 Ba2 Cu2.94 Co0.06 O6.8
4805,[11004],Y1Ba2Cu2.94Co0.06O7,Y1Ba2Cu2.94Co0.06O7,"{'Ba': 2.0, 'Co': 0.06, 'Cu': 2.94, 'O': 7.0, 'Y': 1.0}",78.3,78.3,0.0,1,Y1 Ba2 Cu2.94 Co0.06 O7
4806,"[7907, 7911]",Y1Ba2Cu0.925Co0.075O7-d,Y1Ba2Cu0.925Co0.075O7,"{'Ba': 2.0, 'Co': 0.075, 'Cu': 0.925, 'O': 7.0, 'Y': 1.0}",86.8,84.0,2.8,2,Y1 Ba2 Cu0.925 Co0.075 O7
4807,[408],Y1Ba2Cu2.925Co0.075O6.97,Y1Ba2Cu2.925Co0.075O6.97,"{'Ba': 2.0, 'Co': 0.075, 'Cu': 2.925, 'O': 6.97, 'Y': 1.0}",92.0,92.0,0.0,1,Y1 Ba2 Cu2.925 Co0.075 O6.97
4808,"[2955, 4244, 21529]",Y1Ba2Cu3.92Co0.08O8,Y1Ba2Cu3.92Co0.08O8,"{'Ba': 2.0, 'Co': 0.08, 'Cu': 3.92, 'O': 8.0, 'Y': 1.0}",63.75,50.1833333333,11.2510987118,3,Y1 Ba2 Cu3.92 Co0.08 O8
4809,"[7908, 7912]",Y1Ba2Cu0.91Co0.09O7-d,Y1Ba2Cu0.91Co0.09O7,"{'Ba': 2.0, 'Co': 0.09, 'Cu': 0.91, 'O': 7.0, 'Y': 1.0}",86.4,81.25,5.15,2,Y1 Ba2 Cu0.91 Co0.09 O7
4810,[2190],Y1Ba2Cu2.91Co0.09O7+Z,Y1Ba2Cu2.91Co0.09O7,"{'Ba': 2.0, 'Co': 0.09, 'Cu': 2.91, 'O': 7.0, 'Y': 1.0}",70.0,70.0,0.0,1,Y1 Ba2 Cu2.91 Co0.09 O7
4811,[1163],Y1Ba2Cu2.901Co0.099O7-Z,Y1Ba2Cu2.901Co0.099O7,"{'Ba': 2.0, 'Co': 0.099, 'Cu': 2.901, 'O': 7.0, 'Y': 1.0}",70.0,70.0,0.0,1,Y1 Ba2 Cu2.901 Co0.099 O7
4812,[5399],Eu1Ba2Cu2.9Co0.1O6.97,Eu1Ba2Cu2.9Co0.1O6.97,"{'Ba': 2.0, 'Co': 0.1, 'Cu': 2.9, 'Eu': 1.0, 'O': 6.97}",72.7,72.7,0.0,1,Eu1 Ba2 Cu2.9 Co0.1 O6.97
4813,[2513],Gd1Ba2Cu2.9Co0.1O7-Z,Gd1Ba2Cu2.9Co0.1O7,"{'Ba': 2.0, 'Co': 0.1, 'Cu': 2.9, 'Gd': 1.0, 'O': 7.0}",76.0,76.0,0.0,1,Gd1 Ba2 Cu2.9 Co0.1 O7
4814,[236],Y1Ba2Cu2.9Co0.1O6.82,Y1Ba2Cu2.9Co0.1O6.82,"{'Ba': 2.0, 'Co': 0.1, 'Cu': 2.9, 'O': 6.82, 'Y': 1.0}",73.0,73.0,0.0,1,Y1 Ba2 Cu2.9 Co0.1 O6.82
4815,[581],Y1Ba2Cu2.9Co0.1O6.89,Y1Ba2Cu2.9Co0.1O6.89,"{'Ba': 2.0, 'Co': 0.1, 'Cu': 2.9, 'O': 6.89, 'Y': 1.0}",55.3,55.3,0.0,1,Y1 Ba2 Cu2.9 Co0.1 O6.89
4816,[1003],Y1Ba2Cu2.89Co0.11O7,Y1Ba2Cu2.89Co0.11O7,"{'Ba': 2.0, 'Co': 0.11, 'Cu': 2.89, 'O': 7.0, 'Y': 1.0}",64.0,64.0,0.0,1,Y1 Ba2 Cu2.89 Co0.11 O7
4817,"[7909, 7913]",Y1Ba2Cu0.88Co0.12O7-d,Y1Ba2Cu0.88Co0.12O7,"{'Ba': 2.0, 'Co': 0.12, 'Cu': 0.88, 'O': 7.0, 'Y': 1.0}",77.1,71.7,5.4,2,Y1 Ba2 Cu0.88 Co0.12 O7
4818,"[5029, 5075]",Er1Ba2Cu2.88Co0.12O6.78,Er1Ba2Cu2.88Co0.12O6.78,"{'Ba': 2.0, 'Co': 0.12, 'Cu': 2.88, 'Er': 1.0, 'O': 6.78}",46.0,46.0,0.0,2,Er1 Ba2 Cu2.88 Co0.12 O6.78
4819,"[1629, 2851, 3800, 7529, 11005]",Y1Ba2Cu2.88Co0.12O7-Z,Y1Ba2Cu2.88Co0.12O7,"{'Ba': 2.0, 'Co': 0.12, 'Cu': 2.88, 'O': 7.0, 'Y': 1.0}",84.0,77.7,5.0556898639,5,Y1 Ba2 Cu2.88 Co0.12 O7
4820,"[4245, 21530]",Y1Ba2Cu3.88Co0.12O8,Y1Ba2Cu3.88Co0.12O8,"{'Ba': 2.0, 'Co': 0.12, 'Cu': 3.88, 'O': 8.0, 'Y': 1.0}",58.0,37.45,20.55,2,Y1 Ba2 Cu3.88 Co0.12 O8
4821,[3603],Y1Ba2Cu2.871Co0.129O7-z,Y1Ba2Cu2.871Co0.129O7,"{'Ba': 2.0, 'Co': 0.129, 'Cu': 2.871, 'O': 7.0, 'Y': 1.0}",68.0,68.0,0.0,1,Y1 Ba2 Cu2.871 Co0.129 O7
4822,[4050],Er1Ba2Cu2.85Co0.15O7-y,Er1Ba2Cu2.85Co0.15O7,"{'Ba': 2.0, 'Co': 0.15, 'Cu': 2.85, 'Er': 1.0, 'O': 7.0}",88.5,88.5,0.0,1,Er1 Ba2 Cu2.85 Co0.15 O7
4823,[3161],Y1Ba2Cu2.85Co0.15O6.92,Y1Ba2Cu2.85Co0.15O6.92,"{'Ba': 2.0, 'Co': 0.15, 'Cu': 2.85, 'O': 6.92, 'Y': 1.0}",71.0,71.0,0.0,1,Y1 Ba2 Cu2.85 Co0.15 O6.92
4824,[2191],Y1Ba2Cu2.85Co0.15O7+Z,Y1Ba2Cu2.85Co0.15O7,"{'Ba': 2.0, 'Co': 0.15, 'Cu': 2.85, 'O': 7.0, 'Y': 1.0}",57.1,57.1,0.0,1,Y1 Ba2 Cu2.85 Co0.15 O7
4825,[409],Y1Ba2Cu2.85Co0.15O7.03,Y1Ba2Cu2.85Co0.15O7.03,"{'Ba': 2.0, 'Co': 0.15, 'Cu': 2.85, 'O': 7.03, 'Y': 1.0}",65.0,65.0,0.0,1,Y1 Ba2 Cu2.85 Co0.15 O7.03
4826,[219],Y1Ba2Cu2.841Co0.159O6.8,Y1Ba2Cu2.841Co0.159O6.8,"{'Ba': 2.0, 'Co': 0.159, 'Cu': 2.841, 'O': 6.8, 'Y': 1.0}",54.0,54.0,0.0,1,Y1 Ba2 Cu2.841 Co0.159 O6.8
4827,[4246],Y1Ba2Cu3.84Co0.16O8,Y1Ba2Cu3.84Co0.16O8,"{'Ba': 2.0, 'Co': 0.16, 'Cu': 3.84, 'O': 8.0, 'Y': 1.0}",54.3,54.3,0.0,1,Y1 Ba2 Cu3.84 Co0.16 O8
4828,[5030],Er1Ba2Cu2.28Co0.18O6.74,Er1Ba2Cu2.28Co0.18O6.74,"{'Ba': 2.0, 'Co': 0.18, 'Cu': 2.2800000000000002, 'Er': 1.0, 'O': 6.74}",34.0,34.0,0.0,1,Er1 Ba2 Cu2.28 Co0.18 O6.74
4829,[5076],Er1Ba2Cu2.82Co0.18O6.74,Er1Ba2Cu2.82Co0.18O6.74,"{'Ba': 2.0, 'Co': 0.18, 'Cu': 2.8200000000000003, 'Er': 1.0, 'O': 6.74}",34.0,34.0,0.0,1,Er1 Ba2 Cu2.82 Co0.18 O6.74
4830,[1004],Y1Ba2Cu2.82Co0.18O7,Y1Ba2Cu2.82Co0.18O7,"{'Ba': 2.0, 'Co': 0.18, 'Cu': 2.8200000000000003, 'O': 7.0, 'Y': 1.0}",46.0,46.0,0.0,1,Y1 Ba2 Cu2.82 Co0.18 O7
4831,[5400],Eu1Ba2Cu2.8Co0.2O6.98,Eu1Ba2Cu2.8Co0.2O6.98,"{'Ba': 2.0, 'Co': 0.2, 'Cu': 2.8, 'Eu': 1.0, 'O': 6.98}",55.3,55.3,0.0,1,Eu1 Ba2 Cu2.8 Co0.2 O6.98
4832,[2514],Gd1Ba2Cu2.8Co0.2O7-Z,Gd1Ba2Cu2.8Co0.2O7,"{'Ba': 2.0, 'Co': 0.2, 'Cu': 2.8, 'Gd': 1.0, 'O': 7.0}",49.0,49.0,0.0,1,Gd1 Ba2 Cu2.8 Co0.2 O7
4833,[237],Y1Ba2Cu2.8Co0.2O6.83,Y1Ba2Cu2.8Co0.2O6.83,"{'Ba': 2.0, 'Co': 0.2, 'Cu': 2.8, 'O': 6.83, 'Y': 1.0}",53.0,53.0,0.0,1,Y1 Ba2 Cu2.8 Co0.2 O6.83
4834,[403],Y1Ba2Cu2.8Co0.2O7.04,Y1Ba2Cu2.8Co0.2O7.04,"{'Ba': 2.0, 'Co': 0.2, 'Cu': 2.8, 'O': 7.04, 'Y': 1.0}",53.0,53.0,0.0,1,Y1 Ba2 Cu2.8 Co0.2 O7.04
4835,[4247],Y1Ba2Cu3.8Co0.2O8,Y1Ba2Cu3.8Co0.2O8,"{'Ba': 2.0, 'Co': 0.2, 'Cu': 3.8, 'O': 8.0, 'Y': 1.0}",50.0,50.0,0.0,1,Y1 Ba2 Cu3.8 Co0.2 O8
4836,"[2192, 4090]",Y1Ba2Cu2.79Co0.21O7+Z,Y1Ba2Cu2.79Co0.21O7,"{'Ba': 2.0, 'Co': 0.21, 'Cu': 2.79, 'O': 7.0, 'Y': 1.0}",41.1,31.55,9.55,2,Y1 Ba2 Cu2.79 Co0.21 O7
4837,[410],Y1Ba2Cu2.775Co0.225O6.99,Y1Ba2Cu2.775Co0.225O6.99,"{'Ba': 2.0, 'Co': 0.225, 'Cu': 2.775, 'O': 6.99, 'Y': 1.0}",58.0,58.0,0.0,1,Y1 Ba2 Cu2.775 Co0.225 O6.99
4838,"[5031, 5077]",Er1Ba2Cu2.76Co0.24O6.75,Er1Ba2Cu2.76Co0.24O6.75,"{'Ba': 2.0, 'Co': 0.24, 'Cu': 2.76, 'Er': 1.0, 'O': 6.75}",31.0,31.0,0.0,2,Er1 Ba2 Cu2.76 Co0.24 O6.75
4839,[11006],Y1Ba2Cu2.76Co0.24O6.999,Y1Ba2Cu2.76Co0.24O6.999,"{'Ba': 2.0, 'Co': 0.24, 'Cu': 2.76, 'O': 6.999, 'Y': 1.0}",50.7,50.7,0.0,1,Y1 Ba2 Cu2.76 Co0.24 O6.999
4840,[9318],Y1Ba2Cu2.75Co0.25O7.06,Y1Ba2Cu2.75Co0.25O7.06,"{'Ba': 2.0, 'Co': 0.25, 'Cu': 2.75, 'O': 7.06, 'Y': 1.0}",66.2,66.2,0.0,1,Y1 Ba2 Cu2.75 Co0.25 O7.06
4841,[5401],Eu1Ba2Cu2.7Co0.3O6.95,Eu1Ba2Cu2.7Co0.3O6.95,"{'Ba': 2.0, 'Co': 0.30000000000000004, 'Cu': 2.7, 'Eu': 1.0, 'O': 6.95}",29.4,29.4,0.0,1,Eu1 Ba2 Cu2.7 Co0.3 O6.95
4842,[358],Gd1Ba2Cu2.7Co0.3O6.9,Gd1Ba2Cu2.7Co0.3O6.9,"{'Ba': 2.0, 'Co': 0.30000000000000004, 'Cu': 2.7, 'Gd': 1.0, 'O': 6.9}",33.0,33.0,0.0,1,Gd1 Ba2 Cu2.7 Co0.3 O6.9
4843,[2515],Gd1Ba2Cu2.7Co0.3O7-Z,Gd1Ba2Cu2.7Co0.3O7,"{'Ba': 2.0, 'Co': 0.30000000000000004, 'Cu': 2.7, 'Gd': 1.0, 'O': 7.0}",13.0,13.0,0.0,1,Gd1 Ba2 Cu2.7 Co0.3 O7
4844,[238],Y1Ba2Cu2.7Co0.3O6.88,Y1Ba2Cu2.7Co0.3O6.88,"{'Ba': 2.0, 'Co': 0.30000000000000004, 'Cu': 2.7, 'O': 6.88, 'Y': 1.0}",22.0,22.0,0.0,1,Y1 Ba2 Cu2.7 Co0.3 O6.88
4845,[582],Y1Ba2Cu2.7Co0.3O6.93,Y1Ba2Cu2.7Co0.3O6.93,"{'Ba': 2.0, 'Co': 0.30000000000000004, 'Cu': 2.7, 'O': 6.93, 'Y': 1.0}",16.9,16.9,0.0,1,Y1 Ba2 Cu2.7 Co0.3 O6.93
4846,[411],Y1Ba2Cu2.7Co0.3O7.11,Y1Ba2Cu2.7Co0.3O7.11,"{'Ba': 2.0, 'Co': 0.30000000000000004, 'Cu': 2.7, 'O': 7.11, 'Y': 1.0}",36.0,36.0,0.0,1,Y1 Ba2 Cu2.7 Co0.3 O7.11
4847,[11007],Y1Ba2Cu2.64Co0.36O7.03,Y1Ba2Cu2.64Co0.36O7.03,"{'Ba': 2.0, 'Co': 0.36, 'Cu': 2.64, 'O': 7.03, 'Y': 1.0}",22.0,22.0,0.0,1,Y1 Ba2 Cu2.64 Co0.36 O7.03
4848,[5396],Y1Ba2Cu2.6Co0.4O7.03,Y1Ba2Cu2.6Co0.4O7.03,"{'Ba': 2.0, 'Co': 0.4, 'Cu': 2.6, 'O': 7.03, 'Y': 1.0}",11.3,11.3,0.0,1,Y1 Ba2 Cu2.6 Co0.4 O7.03
4849,[11008],Y1Ba2Cu2.58Co0.42O7.019,Y1Ba2Cu2.58Co0.42O7.019,"{'Ba': 2.0, 'Co': 0.42, 'Cu': 2.58, 'O': 7.019, 'Y': 1.0}",0.0,0.0,0.0,1,Y1 Ba2 Cu2.58 Co0.42 O7.019