,sc_id,supercon_formula,cleaned_formula,material_dict,highest_Tc,average_Tc,std_Tc,entry_count,composition
2328,[15668],Tm1Ni1.91Co0.18B2C1,Tm1Ni1.91Co0.18B2C1,"{'B': 2.0, 'C': 1.0, 'Co': 0.18, 'Ni': 1.9100000000000001, 'Tm': 1.0}",3.2,3.2,0.0,1,Tm1 Ni1.91 Co0.18 B2 C1
2329,"[15445, 15558, 15607]",Y1Ni1.8Co0.2B2C1,Y1Ni1.8Co0.2B2C1,"{'B': 2.0, 'C': 1.0, 'Co': 0.2, 'Ni': 1.8, 'Y': 1.0}",6.8,6.7333333333,0.0471404521,3,Y1 Ni1.8 Co0.2 B2 C1
2330,[15656],Lu1Ni1.89Co0.22B2C1,Lu1Ni1.89Co0.22B2C1,"{'B': 2.0, 'C': 1.0, 'Co': 0.22, 'Lu': 1.0, 'Ni': 1.8900000000000001}",7.5,7.5,0.0,1,Lu1 Ni1.89 Co0.22 B2 C1
2331,[15669],Tm1Ni1.88Co0.24B2C1,Tm1Ni1.88Co0.24B2C1,"{'B': 2.0, 'C': 1.0, 'Co': 0.24, 'Ni': 1.88, 'Tm': 1.0}",1.6,1.6,0.0,1,Tm1 Ni1.88 Co0.24 B2 C1
2332,[15657],Lu1Ni1.87Co0.26B2C1,Lu1Ni1.87Co0.26B2C1,"{'B': 2.0, 'C': 1.0, 'Co': 0.26, 'Lu': 1.0, 'Ni': 1.87}",6.0,6.0,0.0,1,Lu1 Ni1.87 Co0.26 B2 C1
2333,[15645],Lu1Ni1.85Co0.3B2C1,Lu1Ni1.85Co0.3B2C1,"{'B': 2.0, 'C': 1.0, 'Co': 0.30000000000000004, 'Lu': 1.0, 'Ni': 1.85}",4.8,4.8,0.0,1,Lu1 Ni1.85 Co0.3 B2 C1
2334,[15658],Lu1Ni1.83Co0.34B2C1,Lu1Ni1.83Co0.34B2C1,"{'B': 2.0, 'C': 1.0, 'Co': 0.34, 'Lu': 1.0, 'Ni': 1.83}",3.8,3.8,0.0,1,Lu1 Ni1.83 Co0.34 B2 C1
2335,[15659],Lu1Ni1.81Co0.38B2C1,Lu1Ni1.81Co0.38B2C1,"{'B': 2.0, 'C': 1.0, 'Co': 0.38, 'Lu': 1.0, 'Ni': 1.81}",2.9,2.9,0.0,1,Lu1 Ni1.81 Co0.38 B2 C1
2336,[15660],Lu1Ni1.8Co0.4B2C1,Lu1Ni1.8Co0.4B2C1,"{'B': 2.0, 'C': 1.0, 'Co': 0.4, 'Lu': 1.0, 'Ni': 1.8}",2.6,2.6,0.0,1,Lu1 Ni1.8 Co0.4 B2 C1
2337,[15446],Y1Ni1Co1B2C1,Y1Ni1Co1B2C1,"{'B': 2.0, 'C': 1.0, 'Co': 1.0, 'Ni': 1.0, 'Y': 1.0}",0.0,0.0,0.0,1,Y1 Ni1 Co1 B2 C1
2338,[15562],Y1Ni1.985Cu0.015B2C1,Y1Ni1.985Cu0.015B2C1,"{'B': 2.0, 'C': 1.0, 'Cu': 0.015, 'Ni': 1.9849999999999999, 'Y': 1.0}",14.3,14.3,0.0,1,Y1 Ni1.985 Cu0.015 B2 C1
2339,[15564],Y1Ni1.95Cu0.05B2C1,Y1Ni1.95Cu0.05B2C1,"{'B': 2.0, 'C': 1.0, 'Cu': 0.05, 'Ni': 1.9500000000000002, 'Y': 1.0}",14.7,14.7,0.0,1,Y1 Ni1.95 Cu0.05 B2 C1
2340,"[15565, 15599]",Y1Ni1.9Cu0.1B2C1,Y1Ni1.9Cu0.1B2C1,"{'B': 2.0, 'C': 1.0, 'Cu': 0.1, 'Ni': 1.9, 'Y': 1.0}",13.8,13.75,0.05,2,Y1 Ni1.9 Cu0.1 B2 C1
2341,[15566],Y1Ni1.85Cu0.15B2C1,Y1Ni1.85Cu0.15B2C1,"{'B': 2.0, 'C': 1.0, 'Cu': 0.15, 'Ni': 1.85, 'Y': 1.0}",13.0,13.0,0.0,1,Y1 Ni1.85 Cu0.15 B2 C1
2342,"[15567, 15600]",Y1Ni1.8Cu0.2B2C1,Y1Ni1.8Cu0.2B2C1,"{'B': 2.0, 'C': 1.0, 'Cu': 0.2, 'Ni': 1.8, 'Y': 1.0}",11.6,11.55,0.05,2,Y1 Ni1.8 Cu0.2 B2 C1
2343,"[15568, 15601]",Y1Ni1.7Cu0.3B2C1,Y1Ni1.7Cu0.3B2C1,"{'B': 2.0, 'C': 1.0, 'Cu': 0.30000000000000004, 'Ni': 1.7000000000000002, 'Y': 1.0}",10.9,10.85,0.05,2,Y1 Ni1.7 Cu0.3 B2 C1
2344,"[15569, 15602]",Y1Ni1.6Cu0.4B2C1,Y1Ni1.6Cu0.4B2C1,"{'B': 2.0, 'C': 1.0, 'Cu': 0.4, 'Ni': 1.6, 'Y': 1.0}",10.6,10.6,0.0,2,Y1 Ni1.6 Cu0.4 B2 C1
2345,"[15570, 15603]",Y1Ni1.4Cu0.6B2C1,Y1Ni1.4Cu0.6B2C1,"{'B': 2.0, 'C': 1.0, 'Cu': 0.6000000000000001, 'Ni': 1.4, 'Y': 1.0}",10.5,10.45,0.05,2,Y1 Ni1.4 Cu0.6 B2 C1
2346,[15604],Y1Ni1Cu1B2C1,Y1Ni1Cu1B2C1,"{'B': 2.0, 'C': 1.0, 'Cu': 1.0, 'Ni': 1.0, 'Y': 1.0}",10.1,10.1,0.0,1,Y1 Ni1 Cu1 B2 C1
2347,[15571],Y1Cu2B2C1,Y1Cu2B2C1,"{'B': 2.0, 'C': 1.0, 'Cu': 2.0, 'Y': 1.0}",10.0,10.0,0.0,1,Y1 Cu2 B2 C1
2348,"[15519, 16531, 17059, 17245]",Ho0.9Dy0.1Ni2B2C1,Ho0.9Dy0.1Ni2B2C1,"{'B': 2.0, 'C': 1.0, 'Dy': 0.1, 'Ho': 0.9, 'Ni': 2.0}",8.2,8.0875,0.0892678554,4,Ho0.9 Dy0.1 Ni2 B2 C1
2349,"[15520, 17060]",Ho0.85Dy0.15Ni2B2C1,Ho0.85Dy0.15Ni2B2C1,"{'B': 2.0, 'C': 1.0, 'Dy': 0.15, 'Ho': 0.85, 'Ni': 2.0}",7.9,7.895,0.005,2,Ho0.85 Dy0.15 Ni2 B2 C1
2350,[17061],Ho0.8Dy0.2Ni2B2C1,Ho0.8Dy0.2Ni2B2C1,"{'B': 2.0, 'C': 1.0, 'Dy': 0.2, 'Ho': 0.8, 'Ni': 2.0}",6.61,6.61,0.0,1,Ho0.8 Dy0.2 Ni2 B2 C1
2351,[15521],Ho1.8Dy0.2Ni2B2C1,Ho1.8Dy0.2Ni2B2C1,"{'B': 2.0, 'C': 1.0, 'Dy': 0.2, 'Ho': 1.8, 'Ni': 2.0}",6.6,6.6,0.0,1,Ho1.8 Dy0.2 Ni2 B2 C1
2352,[15530],Lu0.8Dy0.2Ni2B2C1,Lu0.8Dy0.2Ni2B2C1,"{'B': 2.0, 'C': 1.0, 'Dy': 0.2, 'Lu': 0.8, 'Ni': 2.0}",11.8,11.8,0.0,1,Lu0.8 Dy0.2 Ni2 B2 C1
2353,[21746],Dy0.2Tm0.8Ni2B2C1,Dy0.2Tm0.8Ni2B2C1,"{'B': 2.0, 'C': 1.0, 'Dy': 0.2, 'Ni': 2.0, 'Tm': 0.8}",9.75,9.75,0.0,1,Dy0.2 Tm0.8 Ni2 B2 C1
2354,[17070],Lu0.772Dy0.228Ni2B2C1,Lu0.772Dy0.228Ni2B2C1,"{'B': 2.0, 'C': 1.0, 'Dy': 0.228, 'Lu': 0.772, 'Ni': 2.0}",11.77,11.77,0.0,1,Lu0.772 Dy0.228 Ni2 B2 C1
2355,[16655],Y0.75Dy0.25Ni2B2C1,Y0.75Dy0.25Ni2B2C1,"{'B': 2.0, 'C': 1.0, 'Dy': 0.25, 'Ni': 2.0, 'Y': 0.75}",12.0,12.0,0.0,1,Y0.75 Dy0.25 Ni2 B2 C1
2356,"[15522, 17062]",Ho0.7Dy0.3Ni2B2C1,Ho0.7Dy0.3Ni2B2C1,"{'B': 2.0, 'C': 1.0, 'Dy': 0.30000000000000004, 'Ho': 0.7000000000000001, 'Ni': 2.0}",5.86,5.83,0.03,2,Ho0.7 Dy0.3 Ni2 B2 C1
2357,"[15523, 17063]",Ho0.65Dy0.35Ni2B2C1,Ho0.65Dy0.35Ni2B2C1,"{'B': 2.0, 'C': 1.0, 'Dy': 0.35000000000000003, 'Ho': 0.65, 'Ni': 2.0}",5.91,5.905,0.005,2,Ho0.65 Dy0.35 Ni2 B2 C1
2358,[16656],Y0.65Dy0.35Ni2B2C1,Y0.65Dy0.35Ni2B2C1,"{'B': 2.0, 'C': 1.0, 'Dy': 0.35000000000000003, 'Ni': 2.0, 'Y': 0.65}",10.6,10.6,0.0,1,Y0.65 Dy0.35 Ni2 B2 C1
2359,"[15524, 16532, 17064, 17246]",Ho0.6Dy0.4Ni2B2C1,Ho0.6Dy0.4Ni2B2C1,"{'B': 2.0, 'C': 1.0, 'Dy': 0.4, 'Ho': 0.6000000000000001, 'Ni': 2.0}",6.02,5.985,0.0384057287,4,Ho0.6 Dy0.4 Ni2 B2 C1
2360,[15531],Lu0.6Dy0.4Ni2B2C1,Lu0.6Dy0.4Ni2B2C1,"{'B': 2.0, 'C': 1.0, 'Dy': 0.4, 'Lu': 0.6000000000000001, 'Ni': 2.0}",7.5,7.5,0.0,1,Lu0.6 Dy0.4 Ni2 B2 C1
2361,[21745],Dy0.4Tm0.6Ni2B2C1,Dy0.4Tm0.6Ni2B2C1,"{'B': 2.0, 'C': 1.0, 'Dy': 0.4, 'Ni': 2.0, 'Tm': 0.6000000000000001}",9.0,9.0,0.0,1,Dy0.4 Tm0.6 Ni2 B2 C1
2362,[17071],Lu0.574Dy0.426Ni2B2C1,Lu0.574Dy0.426Ni2B2C1,"{'B': 2.0, 'C': 1.0, 'Dy': 0.426, 'Lu': 0.5740000000000001, 'Ni': 2.0}",7.54,7.54,0.0,1,Lu0.574 Dy0.426 Ni2 B2 C1
2363,"[15525, 17065]",Ho0.5Dy0.5Ni2B2C1,Ho0.5Dy0.5Ni2B2C1,"{'B': 2.0, 'C': 1.0, 'Dy': 0.5, 'Ho': 0.5, 'Ni': 2.0}",5.91,5.905,0.005,2,Ho0.5 Dy0.5 Ni2 B2 C1
2364,[16657],Y0.45Dy0.55Ni2B2C1,Y0.45Dy0.55Ni2B2C1,"{'B': 2.0, 'C': 1.0, 'Dy': 0.55, 'Ni': 2.0, 'Y': 0.45}",5.2,5.2,0.0,1,Y0.45 Dy0.55 Ni2 B2 C1
2365,[17072],Lu0.418Dy0.582Ni2B2C1,Lu0.418Dy0.582Ni2B2C1,"{'B': 2.0, 'C': 1.0, 'Dy': 0.582, 'Lu': 0.418, 'Ni': 2.0}",4.35,4.35,0.0,1,Lu0.418 Dy0.582 Ni2 B2 C1
2366,"[15526, 17066]",Ho0.4Dy0.6Ni2B2C1,Ho0.4Dy0.6Ni2B2C1,"{'B': 2.0, 'C': 1.0, 'Dy': 0.6000000000000001, 'Ho': 0.4, 'Ni': 2.0}",5.86,5.855,0.005,2,Ho0.4 Dy0.6 Ni2 B2 C1
2367,[15532],Lu0.4Dy0.6Ni2B2C1,Lu0.4Dy0.6Ni2B2C1,"{'B': 2.0, 'C': 1.0, 'Dy': 0.6000000000000001, 'Lu': 0.4, 'Ni': 2.0}",4.3,4.3,0.0,1,Lu0.4 Dy0.6 Ni2 B2 C1
2368,[21744],Dy0.6Tm0.4Ni2B2C1,Dy0.6Tm0.4Ni2B2C1,"{'B': 2.0, 'C': 1.0, 'Dy': 0.6000000000000001, 'Ni': 2.0, 'Tm': 0.4}",5.77,5.77,0.0,1,Dy0.6 Tm0.4 Ni2 B2 C1
2369,[17073],Lu0.37Dy0.63Ni2B2C1,Lu0.37Dy0.63Ni2B2C1,"{'B': 2.0, 'C': 1.0, 'Dy': 0.63, 'Lu': 0.37, 'Ni': 2.0}",3.59,3.59,0.0,1,Lu0.37 Dy0.63 Ni2 B2 C1
2370,[17074],Lu0.32Dy0.68Ni2B2C1,Lu0.32Dy0.68Ni2B2C1,"{'B': 2.0, 'C': 1.0, 'Dy': 0.68, 'Lu': 0.32, 'Ni': 2.0}",2.0,2.0,0.0,1,Lu0.32 Dy0.68 Ni2 B2 C1
2371,[15533],Lu0.3Dy0.7Ni2B2C1,Lu0.3Dy0.7Ni2B2C1,"{'B': 2.0, 'C': 1.0, 'Dy': 0.7000000000000001, 'Lu': 0.30000000000000004, 'Ni': 2.0}",2.0,2.0,0.0,1,Lu0.3 Dy0.7 Ni2 B2 C1
2372,[12728],Dy0.75Tb0.25Ni2B2C1,Dy0.75Tb0.25Ni2B2C1,"{'B': 2.0, 'C': 1.0, 'Dy': 0.75, 'Ni': 2.0, 'Tb': 0.25}",3.24,3.24,0.0,1,Dy0.75 Tb0.25 Ni2 B2 C1
2373,"[15527, 17067]",Ho0.2Dy0.8Ni2B2C1,Ho0.2Dy0.8Ni2B2C1,"{'B': 2.0, 'C': 1.0, 'Dy': 0.8, 'Ho': 0.2, 'Ni': 2.0}",6.23,6.215,0.015,2,Ho0.2 Dy0.8 Ni2 B2 C1
2374,[21743],Dy0.8Tm0.2Ni2B2C1,Dy0.8Tm0.2Ni2B2C1,"{'B': 2.0, 'C': 1.0, 'Dy': 0.8, 'Ni': 2.0, 'Tm': 0.2}",3.42,3.42,0.0,1,Dy0.8 Tm0.2 Ni2 B2 C1
2375,[21742],Dy0.85Tm0.15Ni2B2C1,Dy0.85Tm0.15Ni2B2C1,"{'B': 2.0, 'C': 1.0, 'Dy': 0.85, 'Ni': 2.0, 'Tm': 0.15}",2.3,2.3,0.0,1,Dy0.85 Tm0.15 Ni2 B2 C1
2376,[16658],Y0.15Dy0.85Ni2B2C1,Y0.15Dy0.85Ni2B2C1,"{'B': 2.0, 'C': 1.0, 'Dy': 0.85, 'Ni': 2.0, 'Y': 0.15}",4.3,4.3,0.0,1,Y0.15 Dy0.85 Ni2 B2 C1
2377,"[15534, 17075]",Lu0.1Dy0.9Ni2B2C1,Lu0.1Dy0.9Ni2B2C1,"{'B': 2.0, 'C': 1.0, 'Dy': 0.9, 'Lu': 0.1, 'Ni': 2.0}",2.5,2.485,0.015,2,Lu0.1 Dy0.9 Ni2 B2 C1
2378,[12727],Dy0.9Tb0.1Ni2B2C1,Dy0.9Tb0.1Ni2B2C1,"{'B': 2.0, 'C': 1.0, 'Dy': 0.9, 'Ni': 2.0, 'Tb': 0.1}",4.7,4.7,0.0,1,Dy0.9 Tb0.1 Ni2 B2 C1
2379,[21741],Dy0.9Tm0.1Ni2B2C1,Dy0.9Tm0.1Ni2B2C1,"{'B': 2.0, 'C': 1.0, 'Dy': 0.9, 'Ni': 2.0, 'Tm': 0.1}",4.55,4.55,0.0,1,Dy0.9 Tm0.1 Ni2 B2 C1
2380,"[15535, 17076]",Lu0.05Dy0.95Ni2B2C1,Lu0.05Dy0.95Ni2B2C1,"{'B': 2.0, 'C': 1.0, 'Dy': 0.9500000000000001, 'Lu': 0.05, 'Ni': 2.0}",6.35,5.325,1.025,2,Lu0.05 Dy0.95 Ni2 B2 C1
2381,[12726],Dy0.95Tb0.05Ni2B2C1,Dy0.95Tb0.05Ni2B2C1,"{'B': 2.0, 'C': 1.0, 'Dy': 0.9500000000000001, 'Ni': 2.0, 'Tb': 0.05}",5.61,5.61,0.0,1,Dy0.95 Tb0.05 Ni2 B2 C1
2382,"[12729, 15528, 15536, 15548, 15553, 15597, 15624, 15679, 15697, 15733, 16530, 17068, 17077, 17116, 21740, 23822]",Dy1Ni2B2C1,Dy1Ni2B2C1,"{'B': 2.0, 'C': 1.0, 'Dy': 1.0, 'Ni': 2.0}",6.51,5.541875,1.4438889273,16,Dy1 Ni2 B2 C1
2383,[17046],Er0.4Tb0.6Ni2B2C1,Er0.4Tb0.6Ni2B2C1,"{'B': 2.0, 'C': 1.0, 'Er': 0.4, 'Ni': 2.0, 'Tb': 0.6000000000000001}",2.0,2.0,0.0,1,Er0.4 Tb0.6 Ni2 B2 C1
2384,[17045],Er0.7Tb0.3Ni2B2C1,Er0.7Tb0.3Ni2B2C1,"{'B': 2.0, 'C': 1.0, 'Er': 0.7000000000000001, 'Ni': 2.0, 'Tb': 0.30000000000000004}",2.0,2.0,0.0,1,Er0.7 Tb0.3 Ni2 B2 C1
2385,"[15696, 17044, 17052]",Tb0.25Er0.75Ni2B2C1,Tb0.25Er0.75Ni2B2C1,"{'B': 2.0, 'C': 1.0, 'Er': 0.75, 'Ni': 2.0, 'Tb': 0.25}",4.9,4.6,0.4242640687,3,Tb0.25 Er0.75 Ni2 B2 C1
2386,"[15695, 17051]",Tb0.225Er0.775Ni2B2C1,Tb0.225Er0.775Ni2B2C1,"{'B': 2.0, 'C': 1.0, 'Er': 0.775, 'Ni': 2.0, 'Tb': 0.225}",5.9,5.9,0.0,2,Tb0.225 Er0.775 Ni2 B2 C1
2387,[17359],Er0.8Lu0.2Ni2B2C1,Er0.8Lu0.2Ni2B2C1,"{'B': 2.0, 'C': 1.0, 'Er': 0.8, 'Lu': 0.2, 'Ni': 2.0}",10.8,10.8,0.0,1,Er0.8 Lu0.2 Ni2 B2 C1
2388,"[15694, 17050, 17057, 17358]",Tb0.2Er0.8Ni2B2C1,Tb0.2Er0.8Ni2B2C1,"{'B': 2.0, 'C': 1.0, 'Er': 0.8, 'Ni': 2.0, 'Tb': 0.2}",7.1,5.675,1.4771171247,4,Tb0.2 Er0.8 Ni2 B2 C1
2389,[17056],Er0.82Tb0.18Ni2B2C1,Er0.82Tb0.18Ni2B2C1,"{'B': 2.0, 'C': 1.0, 'Er': 0.8200000000000001, 'Ni': 2.0, 'Tb': 0.18}",5.63,5.63,0.0,1,Er0.82 Tb0.18 Ni2 B2 C1
2390,"[17049, 17055]",Er0.85Tb0.15Ni2B2C1,Er0.85Tb0.15Ni2B2C1,"{'B': 2.0, 'C': 1.0, 'Er': 0.85, 'Ni': 2.0, 'Tb': 0.15}",8.3,7.225,1.075,2,Er0.85 Tb0.15 Ni2 B2 C1
2391,"[17048, 17054]",Er0.9Tb0.1Ni2B2C1,Er0.9Tb0.1Ni2B2C1,"{'B': 2.0, 'C': 1.0, 'Er': 0.9, 'Ni': 2.0, 'Tb': 0.1}",9.2,8.52,0.68,2,Er0.9 Tb0.1 Ni2 B2 C1
2392,"[18412, 20245]",Er1Ni1.98Fe0.02B2C1,Er1Ni1.98Fe0.02B2C1,"{'B': 2.0, 'C': 1.0, 'Er': 1.0, 'Fe': 0.02, 'Ni': 1.98}",10.27,9.535,0.735,2,Er1 Ni1.98 Fe0.02 B2 C1
2393,[18413],Er1Ni1.965Fe0.035B2C1,Er1Ni1.965Fe0.035B2C1,"{'B': 2.0, 'C': 1.0, 'Er': 1.0, 'Fe': 0.035, 'Ni': 1.9649999999999999}",7.31,7.31,0.0,1,Er1 Ni1.965 Fe0.035 B2 C1
2394,"[18414, 20246]",Er1Ni1.96Fe0.04B2C1,Er1Ni1.96Fe0.04B2C1,"{'B': 2.0, 'C': 1.0, 'Er': 1.0, 'Fe': 0.04, 'Ni': 1.96}",9.5,8.355,1.145,2,Er1 Ni1.96 Fe0.04 B2 C1
2395,[20247],Er1Ni1.94Fe0.06B2C1,Er1Ni1.94Fe0.06B2C1,"{'B': 2.0, 'C': 1.0, 'Er': 1.0, 'Fe': 0.06, 'Ni': 1.94}",8.5,8.5,0.0,1,Er1 Ni1.94 Fe0.06 B2 C1
2396,[18415],Er1Ni1.93Fe0.07B2C1,Er1Ni1.93Fe0.07B2C1,"{'B': 2.0, 'C': 1.0, 'Er': 1.0, 'Fe': 0.07, 'Ni': 1.9300000000000002}",0.0,0.0,0.0,1,Er1 Ni1.93 Fe0.07 B2 C1
2397,[20248],Er1Ni1.92Fe0.08B2C1,Er1Ni1.92Fe0.08B2C1,"{'B': 2.0, 'C': 1.0, 'Er': 1.0, 'Fe': 0.08, 'Ni': 1.92}",4.63,4.63,0.0,1,Er1 Ni1.92 Fe0.08 B2 C1
2398,[20249],Er1Ni1.9Fe0.1B2C1,Er1Ni1.9Fe0.1B2C1,"{'B': 2.0, 'C': 1.0, 'Er': 1.0, 'Fe': 0.1, 'Ni': 1.9}",4.31,4.31,0.0,1,Er1 Ni1.9 Fe0.1 B2 C1
2399,[20250],Er1Ni1.88Fe0.12B2C1,Er1Ni1.88Fe0.12B2C1,"{'B': 2.0, 'C': 1.0, 'Er': 1.0, 'Fe': 0.12, 'Ni': 1.88}",0.0,0.0,0.0,1,Er1 Ni1.88 Fe0.12 B2 C1
2400,"[15432, 15435, 15550, 15555, 15613, 15622, 15628, 15648, 15690, 15735, 15919, 16106, 16540, 17080, 17081, 18411, 20244, 20259, 22832, 24549, 24705]",Er1Ni2B2C1,Er1Ni2B2C1,"{'B': 2.0, 'C': 1.0, 'Er': 1.0, 'Ni': 2.0}",11.0,10.4519047619,0.45439252010000003,21,Er1 Ni2 B2 C1
2401,[18417],Ho1Ni1.99Fe0.01B2C1,Ho1Ni1.99Fe0.01B2C1,"{'B': 2.0, 'C': 1.0, 'Fe': 0.01, 'Ho': 1.0, 'Ni': 1.99}",7.0,7.0,0.0,1,Ho1 Ni1.99 Fe0.01 B2 C1
2402,[15450],Y1Ni1.98Fe0.02B2C1,Y1Ni1.98Fe0.02B2C1,"{'B': 2.0, 'C': 1.0, 'Fe': 0.02, 'Ni': 1.98, 'Y': 1.0}",13.4,13.4,0.0,1,Y1 Ni1.98 Fe0.02 B2 C1
2403,[20252],Tm1Ni1.96Fe0.04B2C1,Tm1Ni1.96Fe0.04B2C1,"{'B': 2.0, 'C': 1.0, 'Fe': 0.04, 'Ni': 1.96, 'Tm': 1.0}",7.97,7.97,0.0,1,Tm1 Ni1.96 Fe0.04 B2 C1
2404,[15451],Y1Ni1.94Fe0.06B2C1,Y1Ni1.94Fe0.06B2C1,"{'B': 2.0, 'C': 1.0, 'Fe': 0.06, 'Ni': 1.94, 'Y': 1.0}",10.2,10.2,0.0,1,Y1 Ni1.94 Fe0.06 B2 C1
2405,[20253],Tm1Ni1.92Fe0.08B2C1,Tm1Ni1.92Fe0.08B2C1,"{'B': 2.0, 'C': 1.0, 'Fe': 0.08, 'Ni': 1.92, 'Tm': 1.0}",7.39,7.39,0.0,1,Tm1 Ni1.92 Fe0.08 B2 C1
2406,[20254],Tm1Ni1.9Fe0.1B2C1,Tm1Ni1.9Fe0.1B2C1,"{'B': 2.0, 'C': 1.0, 'Fe': 0.1, 'Ni': 1.9, 'Tm': 1.0}",6.64,6.64,0.0,1,Tm1 Ni1.9 Fe0.1 B2 C1
2407,[15452],Y1Ni1.9Fe0.1B2C1,Y1Ni1.9Fe0.1B2C1,"{'B': 2.0, 'C': 1.0, 'Fe': 0.1, 'Ni': 1.9, 'Y': 1.0}",8.2,8.2,0.0,1,Y1 Ni1.9 Fe0.1 B2 C1
2408,[20255],Tm1Ni1.88Fe0.12B2C1,Tm1Ni1.88Fe0.12B2C1,"{'B': 2.0, 'C': 1.0, 'Fe': 0.12, 'Ni': 1.88, 'Tm': 1.0}",5.52,5.52,0.0,1,Tm1 Ni1.88 Fe0.12 B2 C1
2409,[15453],Y1Ni1.86Fe0.14B2C1,Y1Ni1.86Fe0.14B2C1,"{'B': 2.0, 'C': 1.0, 'Fe': 0.14, 'Ni': 1.8599999999999999, 'Y': 1.0}",6.2,6.2,0.0,1,Y1 Ni1.86 Fe0.14 B2 C1
2410,[20256],Tm1Ni1.84Fe0.16B2C1,Tm1Ni1.84Fe0.16B2C1,"{'B': 2.0, 'C': 1.0, 'Fe': 0.16, 'Ni': 1.8399999999999999, 'Tm': 1.0}",3.99,3.99,0.0,1,Tm1 Ni1.84 Fe0.16 B2 C1
2411,[20257],Tm1Ni1.8Fe0.2B2C1,Tm1Ni1.8Fe0.2B2C1,"{'B': 2.0, 'C': 1.0, 'Fe': 0.2, 'Ni': 1.8, 'Tm': 1.0}",0.0,0.0,0.0,1,Tm1 Ni1.8 Fe0.2 B2 C1
2412,"[17097, 17108]",Y0.95Gd0.05Ni2B2C1,Y0.95Gd0.05Ni2B2C1,"{'B': 2.0, 'C': 1.0, 'Gd': 0.05, 'Ni': 2.0, 'Y': 0.9500000000000001}",14.0,13.5,0.5,2,Y0.95 Gd0.05 Ni2 B2 C1
2413,[22019],Lu0.945Gd0.055Ni2B2C1,Lu0.945Gd0.055Ni2B2C1,"{'B': 2.0, 'C': 1.0, 'Gd': 0.055, 'Lu': 0.9450000000000001, 'Ni': 2.0}",13.28,13.28,0.0,1,Lu0.945 Gd0.055 Ni2 B2 C1
2414,"[17098, 17109, 22014]",Y0.9Gd0.1Ni2B2C1,Y0.9Gd0.1Ni2B2C1,"{'B': 2.0, 'C': 1.0, 'Gd': 0.1, 'Ni': 2.0, 'Y': 0.9}",12.5,12.0,0.5715476066,3,Y0.9 Gd0.1 Ni2 B2 C1
2415,[17469],Lu0.88Gd0.12Ni2B2C1,Lu0.88Gd0.12Ni2B2C1,"{'B': 2.0, 'C': 1.0, 'Gd': 0.12, 'Lu': 0.88, 'Ni': 2.0}",7.3,7.3,0.0,1,Lu0.88 Gd0.12 Ni2 B2 C1
2416,[22020],Lu0.87Gd0.13Ni2B2C1,Lu0.87Gd0.13Ni2B2C1,"{'B': 2.0, 'C': 1.0, 'Gd': 0.13, 'Lu': 0.87, 'Ni': 2.0}",9.715,9.715,0.0,1,Lu0.87 Gd0.13 Ni2 B2 C1
2417,[22015],Y0.86Gd0.14Ni2B2C1,Y0.86Gd0.14Ni2B2C1,"{'B': 2.0, 'C': 1.0, 'Gd': 0.14, 'Ni': 2.0, 'Y': 0.86}",10.475,10.475,0.0,1,Y0.86 Gd0.14 Ni2 B2 C1
2418,"[17099, 17110]",Y0.85Gd0.15Ni2B2C1,Y0.85Gd0.15Ni2B2C1,"{'B': 2.0, 'C': 1.0, 'Gd': 0.15, 'Ni': 2.0, 'Y': 0.85}",10.6,9.95,0.65,2,Y0.85 Gd0.15 Ni2 B2 C1
2419,[22021],Lu0.81Gd0.19Ni2B2C1,Lu0.81Gd0.19Ni2B2C1,"{'B': 2.0, 'C': 1.0, 'Gd': 0.19, 'Lu': 0.81, 'Ni': 2.0}",6.155,6.155,0.0,1,Lu0.81 Gd0.19 Ni2 B2 C1
2420,[17100],Y0.8Gd0.2Ni2B2C1,Y0.8Gd0.2Ni2B2C1,"{'B': 2.0, 'C': 1.0, 'Gd': 0.2, 'Ni': 2.0, 'Y': 0.8}",8.1,8.1,0.0,1,Y0.8 Gd0.2 Ni2 B2 C1
2421,[22016],Y0.79Gd0.21Ni2B2C1,Y0.79Gd0.21Ni2B2C1,"{'B': 2.0, 'C': 1.0, 'Gd': 0.21, 'Ni': 2.0, 'Y': 0.79}",7.8100000000000005,7.8100000000000005,0.0,1,Y0.79 Gd0.21 Ni2 B2 C1
2422,"[17101, 17111]",Y0.78Gd0.22Ni2B2C1,Y0.78Gd0.22Ni2B2C1,"{'B': 2.0, 'C': 1.0, 'Gd': 0.22, 'Ni': 2.0, 'Y': 0.78}",7.4,7.02,0.38,2,Y0.78 Gd0.22 Ni2 B2 C1
2423,[17102],Y0.77Gd0.23Ni2B2C1,Y0.77Gd0.23Ni2B2C1,"{'B': 2.0, 'C': 1.0, 'Gd': 0.23, 'Ni': 2.0, 'Y': 0.77}",4.2,4.2,0.0,1,Y0.77 Gd0.23 Ni2 B2 C1
2424,"[17103, 17112]",Y0.75Gd0.25Ni2B2C1,Y0.75Gd0.25Ni2B2C1,"{'B': 2.0, 'C': 1.0, 'Gd': 0.25, 'Ni': 2.0, 'Y': 0.75}",4.84,4.52,0.32,2,Y0.75 Gd0.25 Ni2 B2 C1
2425,[22017],Y0.74Gd0.26Ni2B2C1,Y0.74Gd0.26Ni2B2C1,"{'B': 2.0, 'C': 1.0, 'Gd': 0.26, 'Ni': 2.0, 'Y': 0.74}",5.9350000000000005,5.9350000000000005,0.0,1,Y0.74 Gd0.26 Ni2 B2 C1
2426,[17511],Ho0.15Lu0.85Ni2B2C1,Ho0.15Lu0.85Ni2B2C1,"{'B': 2.0, 'C': 1.0, 'Ho': 0.15, 'Lu': 0.85, 'Ni': 2.0}",15.1,15.1,0.0,1,Ho0.15 Lu0.85 Ni2 B2 C1
2427,[15616],Ho0.25Y0.75Ni2B2C1,Ho0.25Y0.75Ni2B2C1,"{'B': 2.0, 'C': 1.0, 'Ho': 0.25, 'Ni': 2.0, 'Y': 0.75}",13.8,13.8,0.0,1,Ho0.25 Y0.75 Ni2 B2 C1
2428,[17512],Ho0.3Lu0.7Ni2B2C1,Ho0.3Lu0.7Ni2B2C1,"{'B': 2.0, 'C': 1.0, 'Ho': 0.30000000000000004, 'Lu': 0.7000000000000001, 'Ni': 2.0}",13.3,13.3,0.0,1,Ho0.3 Lu0.7 Ni2 B2 C1
2429,[17513],Ho0.45Lu0.55Ni2B2C1,Ho0.45Lu0.55Ni2B2C1,"{'B': 2.0, 'C': 1.0, 'Ho': 0.45, 'Lu': 0.55, 'Ni': 2.0}",10.0,10.0,0.0,1,Ho0.45 Lu0.55 Ni2 B2 C1
2430,[15617],Ho0.5Y0.5Ni2B2C1,Ho0.5Y0.5Ni2B2C1,"{'B': 2.0, 'C': 1.0, 'Ho': 0.5, 'Ni': 2.0, 'Y': 0.5}",11.6,11.6,0.0,1,Ho0.5 Y0.5 Ni2 B2 C1
2431,[17514],Ho0.6Lu0.4Ni2B2C1,Ho0.6Lu0.4Ni2B2C1,"{'B': 2.0, 'C': 1.0, 'Ho': 0.6000000000000001, 'Lu': 0.4, 'Ni': 2.0}",9.82,9.82,0.0,1,Ho0.6 Lu0.4 Ni2 B2 C1
2432,[17515],Ho0.7Lu0.3Ni2B2C1,Ho0.7Lu0.3Ni2B2C1,"{'B': 2.0, 'C': 1.0, 'Ho': 0.7000000000000001, 'Lu': 0.30000000000000004, 'Ni': 2.0}",8.72,8.72,0.0,1,Ho0.7 Lu0.3 Ni2 B2 C1
2433,[17516],Ho0.75Lu0.25Ni2B2C1,Ho0.75Lu0.25Ni2B2C1,"{'B': 2.0, 'C': 1.0, 'Ho': 0.75, 'Lu': 0.25, 'Ni': 2.0}",8.81,8.81,0.0,1,Ho0.75 Lu0.25 Ni2 B2 C1
2434,"[12009, 15618]",Ho0.75Y0.25Ni2B2C1,Ho0.75Y0.25Ni2B2C1,"{'B': 2.0, 'C': 1.0, 'Ho': 0.75, 'Ni': 2.0, 'Y': 0.25}",10.2,8.9,1.3,2,Ho0.75 Y0.25 Ni2 B2 C1
2435,[15754],Ho0.8La0.2Ni2B2C1,Ho0.8La0.2Ni2B2C1,"{'B': 2.0, 'C': 1.0, 'Ho': 0.8, 'La': 0.2, 'Ni': 2.0}",1.3,1.3,0.0,1,Ho0.8 La0.2 Ni2 B2 C1
2436,[17517],Ho0.8Lu0.2Ni2B2C1,Ho0.8Lu0.2Ni2B2C1,"{'B': 2.0, 'C': 1.0, 'Ho': 0.8, 'Lu': 0.2, 'Ni': 2.0}",8.77,8.77,0.0,1,Ho0.8 Lu0.2 Ni2 B2 C1
2437,[17518],Ho0.85Lu0.15Ni2B2C1,Ho0.85Lu0.15Ni2B2C1,"{'B': 2.0, 'C': 1.0, 'Ho': 0.85, 'Lu': 0.15, 'Ni': 2.0}",8.72,8.72,0.0,1,Ho0.85 Lu0.15 Ni2 B2 C1
2438,[15619],Ho0.85Y0.15Ni2B2C1,Ho0.85Y0.15Ni2B2C1,"{'B': 2.0, 'C': 1.0, 'Ho': 0.85, 'Ni': 2.0, 'Y': 0.15}",9.3,9.3,0.0,1,Ho0.85 Y0.15 Ni2 B2 C1
2439,[15755],Ho0.9La0.1Ni2B2C1,Ho0.9La0.1Ni2B2C1,"{'B': 2.0, 'C': 1.0, 'Ho': 0.9, 'La': 0.1, 'Ni': 2.0}",2.25,2.25,0.0,1,Ho0.9 La0.1 Ni2 B2 C1
2440,[17519],Ho0.9Lu0.1Ni2B2C1,Ho0.9Lu0.1Ni2B2C1,"{'B': 2.0, 'C': 1.0, 'Ho': 0.9, 'Lu': 0.1, 'Ni': 2.0}",8.77,8.77,0.0,1,Ho0.9 Lu0.1 Ni2 B2 C1
2441,[15756],Ho0.93La0.07Ni2B2C1,Ho0.93La0.07Ni2B2C1,"{'B': 2.0, 'C': 1.0, 'Ho': 0.93, 'La': 0.07, 'Ni': 2.0}",3.0,3.0,0.0,1,Ho0.93 La0.07 Ni2 B2 C1
2442,[15757],Ho0.95La0.05Ni2B2C1,Ho0.95La0.05Ni2B2C1,"{'B': 2.0, 'C': 1.0, 'Ho': 0.9500000000000001, 'La': 0.05, 'Ni': 2.0}",6.62,6.62,0.0,1,Ho0.95 La0.05 Ni2 B2 C1
2443,[17520],Ho0.95Lu0.05Ni2B2C1,Ho0.95Lu0.05Ni2B2C1,"{'B': 2.0, 'C': 1.0, 'Ho': 0.9500000000000001, 'Lu': 0.05, 'Ni': 2.0}",8.77,8.77,0.0,1,Ho0.95 Lu0.05 Ni2 B2 C1
2444,[15758],Ho0.97La0.03Ni2B2C1,Ho0.97La0.03Ni2B2C1,"{'B': 2.0, 'C': 1.0, 'Ho': 0.97, 'La': 0.03, 'Ni': 2.0}",7.44,7.44,0.0,1,Ho0.97 La0.03 Ni2 B2 C1
2445,"[15433, 15518, 15549, 15554, 15620, 15621, 15627, 15705, 15706, 15734, 15759, 16034, 16533, 16542, 16610, 16707, 17058, 17392, 17464, 17521, 23202]",Ho1Ni2B2C1,Ho1Ni2B2C1,"{'B': 2.0, 'C': 1.0, 'Ho': 1.0, 'Ni': 2.0}",8.7,7.9547619048,0.6936900574,21,Ho1 Ni2 B2 C1
2446,[18861],Lu0.98La0.02Ni2B2C1,Lu0.98La0.02Ni2B2C1,"{'B': 2.0, 'C': 1.0, 'La': 0.02, 'Lu': 0.98, 'Ni': 2.0}",16.2,16.2,0.0,1,Lu0.98 La0.02 Ni2 B2 C1
2447,[18862],Lu0.95La0.05Ni2B2C1,Lu0.95La0.05Ni2B2C1,"{'B': 2.0, 'C': 1.0, 'La': 0.05, 'Lu': 0.9500000000000001, 'Ni': 2.0}",15.3,15.3,0.0,1,Lu0.95 La0.05 Ni2 B2 C1
2448,[18863],Lu0.94La0.06Ni2B2C1,Lu0.94La0.06Ni2B2C1,"{'B': 2.0, 'C': 1.0, 'La': 0.06, 'Lu': 0.9400000000000001, 'Ni': 2.0}",15.1,15.1,0.0,1,Lu0.94 La0.06 Ni2 B2 C1
2449,[18864],Lu0.93La0.07Ni2B2C1,Lu0.93La0.07Ni2B2C1,"{'B': 2.0, 'C': 1.0, 'La': 0.07, 'Lu': 0.93, 'Ni': 2.0}",13.6,13.6,0.0,1,Lu0.93 La0.07 Ni2 B2 C1
2450,[18865],Lu0.92La0.08Ni2B2C1,Lu0.92La0.08Ni2B2C1,"{'B': 2.0, 'C': 1.0, 'La': 0.08, 'Lu': 0.92, 'Ni': 2.0}",13.6,13.6,0.0,1,Lu0.92 La0.08 Ni2 B2 C1
2451,[15429],La0.5Lu0.5Ni2B2C1,La0.5Lu0.5Ni2B2C1,"{'B': 2.0, 'C': 1.0, 'La': 0.5, 'Lu': 0.5, 'Ni': 2.0}",14.8,14.8,0.0,1,La0.5 Lu0.5 Ni2 B2 C1
2452,"[15419, 20120]",La1Pt2B2C1,La1Pt2B2C1,"{'B': 2.0, 'C': 1.0, 'La': 1.0, 'Pt': 2.0}",10.5,10.25,0.25,2,La1 Pt2 B2 C1
2453,[15420],La1Pt2.2B2C1,La1Pt2.2B2C1,"{'B': 2.0, 'C': 1.0, 'La': 1.0, 'Pt': 2.2}",6.5,6.5,0.0,1,La1 Pt2.2 B2 C1