,sc_id,supercon_formula,cleaned_formula,material_dict,highest_Tc,average_Tc,std_Tc,entry_count,composition
759,[24258],Sm1Fe1As0.55P0.45H0.16O0.84,Sm1Fe1As0.55P0.45H0.16O0.84,"{'As': 0.55, 'Fe': 1.0, 'H': 0.16, 'O': 0.84, 'P': 0.45, 'Sm': 1.0}",11.0,11.0,0.0,1,Sm1 Fe1 As0.55 P0.45 H0.16 O0.84
760,[24259],Sm1Fe1As0.55P0.45H0.26O0.74,Sm1Fe1As0.55P0.45H0.26O0.74,"{'As': 0.55, 'Fe': 1.0, 'H': 0.26, 'O': 0.74, 'P': 0.45, 'Sm': 1.0}",17.0,17.0,0.0,1,Sm1 Fe1 As0.55 P0.45 H0.26 O0.74
761,[22360],Ce1Fe1As0.6P0.4F0.05O0.95,Ce1Fe1As0.6P0.4F0.05O0.95,"{'As': 0.6000000000000001, 'Ce': 1.0, 'F': 0.05, 'Fe': 1.0, 'O': 0.9500000000000001, 'P': 0.4}",16.0,16.0,0.0,1,Ce1 Fe1 As0.6 P0.4 F0.05 O0.95
762,"[24526, 24540]",La1Fe1As0.6P0.4F0.05O0.95,La1Fe1As0.6P0.4F0.05O0.95,"{'As': 0.6000000000000001, 'F': 0.05, 'Fe': 1.0, 'La': 1.0, 'O': 0.9500000000000001, 'P': 0.4}",19.08,19.04,0.04,2,La1 Fe1 As0.6 P0.4 F0.05 O0.95
763,"[24523, 24547]",La1Fe1As0.6P0.4F0.1O0.9,La1Fe1As0.6P0.4F0.1O0.9,"{'As': 0.6000000000000001, 'F': 0.1, 'Fe': 1.0, 'La': 1.0, 'O': 0.9, 'P': 0.4}",27.0,27.0,0.0,2,La1 Fe1 As0.6 P0.4 F0.1 O0.9
764,[24708],La1Fe1P0.6As0.6F0.1O0.9,La1Fe1P0.6As0.6F0.1O0.9,"{'As': 0.6000000000000001, 'F': 0.1, 'Fe': 1.0, 'La': 1.0, 'O': 0.9, 'P': 0.6000000000000001}",26.9,26.9,0.0,1,La1 Fe1 P0.6 As0.6 F0.1 O0.9
765,[24672],Nd1Fe1As0.6P0.4F0.1O0.9,Nd1Fe1As0.6P0.4F0.1O0.9,"{'As': 0.6000000000000001, 'F': 0.1, 'Fe': 1.0, 'Nd': 1.0, 'O': 0.9, 'P': 0.4}",28.0,28.0,0.0,1,Nd1 Fe1 As0.6 P0.4 F0.1 O0.9
766,[24664],Pr1Fe1As0.6P0.4F0.1O0.9,Pr1Fe1As0.6P0.4F0.1O0.9,"{'As': 0.6000000000000001, 'F': 0.1, 'Fe': 1.0, 'O': 0.9, 'P': 0.4, 'Pr': 1.0}",23.4,23.4,0.0,1,Pr1 Fe1 As0.6 P0.4 F0.1 O0.9
767,[25537],La1Fe1As0.6P0.4F0.14O0.86,La1Fe1As0.6P0.4F0.14O0.86,"{'As': 0.6000000000000001, 'F': 0.14, 'Fe': 1.0, 'La': 1.0, 'O': 0.86, 'P': 0.4}",26.1,26.1,0.0,1,La1 Fe1 As0.6 P0.4 F0.14 O0.86
768,"[21426, 24413, 24415]",La1Fe1As0.6P0.4O1,La1Fe1As0.6P0.4O1,"{'As': 0.6000000000000001, 'Fe': 1.0, 'La': 1.0, 'O': 1.0, 'P': 0.4}",7.73,5.8433333333,1.3365710689,3,La1 Fe1 As0.6 P0.4 O1
769,[26273],Ba1Fe2As0.64P1.36,Ba1Fe2As0.64P1.36,"{'As': 0.64, 'Ba': 1.0, 'Fe': 2.0, 'P': 1.3599999999999999}",32.0,32.0,0.0,1,Ba1 Fe2 As0.64 P1.36
770,"[22359, 24228]",Ce1Fe1As0.7P0.3F0.05O0.95,Ce1Fe1As0.7P0.3F0.05O0.95,"{'As': 0.7000000000000001, 'Ce': 1.0, 'F': 0.05, 'Fe': 1.0, 'O': 0.9500000000000001, 'P': 0.30000000000000004}",18.2,18.15,0.05,2,Ce1 Fe1 As0.7 P0.3 F0.05 O0.95
771,[22940],Ce1Fe1As0.7P0.3O1,Ce1Fe1As0.7P0.3O1,"{'As': 0.7000000000000001, 'Ce': 1.0, 'Fe': 1.0, 'O': 1.0, 'P': 0.30000000000000004}",4.0,4.0,0.0,1,Ce1 Fe1 As0.7 P0.3 O1
772,[23262],Pr1Fe0.9Co0.1As0.7P0.3O1,Pr1Fe0.9Co0.1As0.7P0.3O1,"{'As': 0.7000000000000001, 'Co': 0.1, 'Fe': 0.9, 'O': 1.0, 'P': 0.30000000000000004, 'Pr': 1.0}",9.86,9.86,0.0,1,Pr1 Fe0.9 Co0.1 As0.7 P0.3 O1
773,[24541],La1Fe1As0.7P0.3F0.05O0.95,La1Fe1As0.7P0.3F0.05O0.95,"{'As': 0.7000000000000001, 'F': 0.05, 'Fe': 1.0, 'La': 1.0, 'O': 0.9500000000000001, 'P': 0.30000000000000004}",15.75,15.75,0.0,1,La1 Fe1 As0.7 P0.3 F0.05 O0.95
774,[24673],Nd1Fe1As0.7P0.3F0.1O0.9,Nd1Fe1As0.7P0.3F0.1O0.9,"{'As': 0.7000000000000001, 'F': 0.1, 'Fe': 1.0, 'Nd': 1.0, 'O': 0.9, 'P': 0.30000000000000004}",29.5,29.5,0.0,1,Nd1 Fe1 As0.7 P0.3 F0.1 O0.9
775,[25536],La1Fe1As0.7P0.3F0.14O0.86,La1Fe1As0.7P0.3F0.14O0.86,"{'As': 0.7000000000000001, 'F': 0.14, 'Fe': 1.0, 'La': 1.0, 'O': 0.86, 'P': 0.30000000000000004}",12.9,12.9,0.0,1,La1 Fe1 As0.7 P0.3 F0.14 O0.86
776,"[21425, 24412, 24534]",La1Fe1As0.7P0.3O1,La1Fe1As0.7P0.3O1,"{'As': 0.7000000000000001, 'Fe': 1.0, 'La': 1.0, 'O': 1.0, 'P': 0.30000000000000004}",10.8,9.7433333333,1.3553925221,3,La1 Fe1 As0.7 P0.3 O1
777,[21718],Ba1Fe2As0.72P1.28,Ba1Fe2As0.72P1.28,"{'As': 0.72, 'Ba': 1.0, 'Fe': 2.0, 'P': 1.28}",8.545,8.545,0.0,1,Ba1 Fe2 As0.72 P1.28
778,[21417],Ba1Fe2As0.74P1.26,Ba1Fe2As0.74P1.26,"{'As': 0.74, 'Ba': 1.0, 'Fe': 2.0, 'P': 1.26}",7.73,7.73,0.0,1,Ba1 Fe2 As0.74 P1.26
779,[24542],La1Fe1As0.75P0.25F0.05O0.95,La1Fe1As0.75P0.25F0.05O0.95,"{'As': 0.75, 'F': 0.05, 'Fe': 1.0, 'La': 1.0, 'O': 0.9500000000000001, 'P': 0.25}",22.38,22.38,0.0,1,La1 Fe1 As0.75 P0.25 F0.05 O0.95
780,[21424],La1Fe1As0.75P0.25O1,La1Fe1As0.75P0.25O1,"{'As': 0.75, 'Fe': 1.0, 'La': 1.0, 'O': 1.0, 'P': 0.25}",10.3,10.3,0.0,1,La1 Fe1 As0.75 P0.25 O1
781,[26274],Ba1Fe2As0.76P1.24,Ba1Fe2As0.76P1.24,"{'As': 0.76, 'Ba': 1.0, 'Fe': 2.0, 'P': 1.24}",26.7,26.7,0.0,1,Ba1 Fe2 As0.76 P1.24
782,[24255],Sm1Fe1As0.77P0.23H0.11O0.89,Sm1Fe1As0.77P0.23H0.11O0.89,"{'As': 0.77, 'Fe': 1.0, 'H': 0.11, 'O': 0.89, 'P': 0.23, 'Sm': 1.0}",28.0,28.0,0.0,1,Sm1 Fe1 As0.77 P0.23 H0.11 O0.89
783,[24256],Sm1Fe1As0.77P0.23H0.2O0.8,Sm1Fe1As0.77P0.23H0.2O0.8,"{'As': 0.77, 'Fe': 1.0, 'H': 0.2, 'O': 0.8, 'P': 0.23, 'Sm': 1.0}",36.0,36.0,0.0,1,Sm1 Fe1 As0.77 P0.23 H0.2 O0.8
784,[22358],Ce1Fe1As0.8P0.2F0.05O0.95,Ce1Fe1As0.8P0.2F0.05O0.95,"{'As': 0.8, 'Ce': 1.0, 'F': 0.05, 'Fe': 1.0, 'O': 0.9500000000000001, 'P': 0.2}",20.6,20.6,0.0,1,Ce1 Fe1 As0.8 P0.2 F0.05 O0.95
785,[23261],Pr1Fe0.9Co0.1As0.8P0.2O1,Pr1Fe0.9Co0.1As0.8P0.2O1,"{'As': 0.8, 'Co': 0.1, 'Fe': 0.9, 'O': 1.0, 'P': 0.2, 'Pr': 1.0}",10.9,10.9,0.0,1,Pr1 Fe0.9 Co0.1 As0.8 P0.2 O1
786,[24543],La1Fe1As0.8P0.2F0.05O0.95,La1Fe1As0.8P0.2F0.05O0.95,"{'As': 0.8, 'F': 0.05, 'Fe': 1.0, 'La': 1.0, 'O': 0.9500000000000001, 'P': 0.2}",25.61,25.61,0.0,1,La1 Fe1 As0.8 P0.2 F0.05 O0.95
787,[24660],La1Fe1As0.8P0.2F0.1O0.9,La1Fe1As0.8P0.2F0.1O0.9,"{'As': 0.8, 'F': 0.1, 'Fe': 1.0, 'La': 1.0, 'O': 0.9, 'P': 0.2}",26.0,26.0,0.0,1,La1 Fe1 As0.8 P0.2 F0.1 O0.9
788,[24709],La1Fe1P0.6As0.8F0.1O0.9,La1Fe1P0.6As0.8F0.1O0.9,"{'As': 0.8, 'F': 0.1, 'Fe': 1.0, 'La': 1.0, 'O': 0.9, 'P': 0.6000000000000001}",25.3,25.3,0.0,1,La1 Fe1 P0.6 As0.8 F0.1 O0.9
789,[24674],Nd1Fe1As0.8P0.2F0.1O0.9,Nd1Fe1As0.8P0.2F0.1O0.9,"{'As': 0.8, 'F': 0.1, 'Fe': 1.0, 'Nd': 1.0, 'O': 0.9, 'P': 0.2}",34.1,34.1,0.0,1,Nd1 Fe1 As0.8 P0.2 F0.1 O0.9
790,[24665],Pr1Fe1As0.8P0.2F0.1O0.9,Pr1Fe1As0.8P0.2F0.1O0.9,"{'As': 0.8, 'F': 0.1, 'Fe': 1.0, 'O': 0.9, 'P': 0.2, 'Pr': 1.0}",29.2,29.2,0.0,1,Pr1 Fe1 As0.8 P0.2 F0.1 O0.9
791,[23799],Sm1Fe1As0.8P0.2F0.12O0.88,Sm1Fe1As0.8P0.2F0.12O0.88,"{'As': 0.8, 'F': 0.12, 'Fe': 1.0, 'O': 0.88, 'P': 0.2, 'Sm': 1.0}",15.6,15.6,0.0,1,Sm1 Fe1 As0.8 P0.2 F0.12 O0.88
792,[25535],La1Fe1As0.8P0.2F0.14O0.86,La1Fe1As0.8P0.2F0.14O0.86,"{'As': 0.8, 'F': 0.14, 'Fe': 1.0, 'La': 1.0, 'O': 0.86, 'P': 0.2}",11.1,11.1,0.0,1,La1 Fe1 As0.8 P0.2 F0.14 O0.86
793,[25528],La0.9Sr0.1Fe1As0.8P0.3O1,La0.9Sr0.1Fe1As0.8P0.3O1,"{'As': 0.8, 'Fe': 1.0, 'La': 0.9, 'O': 1.0, 'P': 0.30000000000000004, 'Sr': 0.1}",6.72,6.72,0.0,1,La0.9 Sr0.1 Fe1 As0.8 P0.3 O1
794,[25529],La0.9Sr0.1Fe1As0.8P0.4O1,La0.9Sr0.1Fe1As0.8P0.4O1,"{'As': 0.8, 'Fe': 1.0, 'La': 0.9, 'O': 1.0, 'P': 0.4, 'Sr': 0.1}",11.14,11.14,0.0,1,La0.9 Sr0.1 Fe1 As0.8 P0.4 O1
795,[25530],La0.9Sr0.1Fe1As0.8P0.5O1,La0.9Sr0.1Fe1As0.8P0.5O1,"{'As': 0.8, 'Fe': 1.0, 'La': 0.9, 'O': 1.0, 'P': 0.5, 'Sr': 0.1}",6.38,6.38,0.0,1,La0.9 Sr0.1 Fe1 As0.8 P0.5 O1
796,[25531],La0.9Sr0.1Fe1As0.8P0.7O1,La0.9Sr0.1Fe1As0.8P0.7O1,"{'As': 0.8, 'Fe': 1.0, 'La': 0.9, 'O': 1.0, 'P': 0.7000000000000001, 'Sr': 0.1}",5.04,5.04,0.0,1,La0.9 Sr0.1 Fe1 As0.8 P0.7 O1
797,[25532],La0.9Sr0.1Fe1As0.8P0.8O1,La0.9Sr0.1Fe1As0.8P0.8O1,"{'As': 0.8, 'Fe': 1.0, 'La': 0.9, 'O': 1.0, 'P': 0.8, 'Sr': 0.1}",13.88,13.88,0.0,1,La0.9 Sr0.1 Fe1 As0.8 P0.8 O1
798,"[21423, 24411, 24535]",La1Fe1As0.8P0.2O1,La1Fe1As0.8P0.2O1,"{'As': 0.8, 'Fe': 1.0, 'La': 1.0, 'O': 1.0, 'P': 0.2}",7.0,3.1033333333,2.9122766963,3,La1 Fe1 As0.8 P0.2 O1
799,[23369],Pr0.65Sr0.35Fe1As0.8Sb0.2O1,Pr0.65Sr0.35Fe1As0.8Sb0.2O1,"{'As': 0.8, 'Fe': 1.0, 'O': 1.0, 'Pr': 0.65, 'Sb': 0.2, 'Sr': 0.35000000000000003}",22.0,22.0,0.0,1,Pr0.65 Sr0.35 Fe1 As0.8 Sb0.2 O1
800,[23908],Sr1Fe2As0.8P1.2,Sr1Fe2As0.8P1.2,"{'As': 0.8, 'Fe': 2.0, 'P': 1.2, 'Sr': 1.0}",6.26,6.26,0.0,1,Sr1 Fe2 As0.8 P1.2
801,"[22357, 24227]",Ce1Fe1As0.85P0.15F0.05O0.95,Ce1Fe1As0.85P0.15F0.05O0.95,"{'As': 0.85, 'Ce': 1.0, 'F': 0.05, 'Fe': 1.0, 'O': 0.9500000000000001, 'P': 0.15}",21.8,21.75,0.05,2,Ce1 Fe1 As0.85 P0.15 F0.05 O0.95
802,[23260],Pr1Fe0.9Co0.1As0.85P0.15O1,Pr1Fe0.9Co0.1As0.85P0.15O1,"{'As': 0.85, 'Co': 0.1, 'Fe': 0.9, 'O': 1.0, 'P': 0.15, 'Pr': 1.0}",12.2,12.2,0.0,1,Pr1 Fe0.9 Co0.1 As0.85 P0.15 O1
803,[23798],Sm1Fe1As0.85P0.15F0.12O0.88,Sm1Fe1As0.85P0.15F0.12O0.88,"{'As': 0.85, 'F': 0.12, 'Fe': 1.0, 'O': 0.88, 'P': 0.15, 'Sm': 1.0}",17.8,17.8,0.0,1,Sm1 Fe1 As0.85 P0.15 F0.12 O0.88
804,[23370],Pr0.65Sr0.35Fe1As0.85Sb0.15O1,Pr0.65Sr0.35Fe1As0.85Sb0.15O1,"{'As': 0.85, 'Fe': 1.0, 'O': 1.0, 'Pr': 0.65, 'Sb': 0.15, 'Sr': 0.35000000000000003}",21.9,21.9,0.0,1,Pr0.65 Sr0.35 Fe1 As0.85 Sb0.15 O1
805,"[25135, 25298]",Sn1As0.87Se0.13,Sn1As0.87Se0.13,"{'As': 0.87, 'Se': 0.13, 'Sn': 1.0}",4.4,4.4,0.0,2,Sn1 As0.87 Se0.13
806,[21416],Ba1Fe2As0.88P1.12,Ba1Fe2As0.88P1.12,"{'As': 0.88, 'Ba': 1.0, 'Fe': 2.0, 'P': 1.12}",13.9,13.9,0.0,1,Ba1 Fe2 As0.88 P1.12
807,[26275],Ba1Fe2As0.9P1.1,Ba1Fe2As0.9P1.1,"{'As': 0.9, 'Ba': 1.0, 'Fe': 2.0, 'P': 1.1}",24.3,24.3,0.0,1,Ba1 Fe2 As0.9 P1.1
808,[23893],Ca0.76Pr0.24Fe1As0.9Sb0.1,Ca0.76Pr0.24Fe1As0.9Sb0.1,"{'As': 0.9, 'Ca': 0.76, 'Fe': 1.0, 'Pr': 0.24, 'Sb': 0.1}",43.0,43.0,0.0,1,Ca0.76 Pr0.24 Fe1 As0.9 Sb0.1
809,[23896],Ca0.84Nd0.16Fe1As0.9Sb0.1,Ca0.84Nd0.16Fe1As0.9Sb0.1,"{'As': 0.9, 'Ca': 0.84, 'Fe': 1.0, 'Nd': 0.16, 'Sb': 0.1}",43.0,43.0,0.0,1,Ca0.84 Nd0.16 Fe1 As0.9 Sb0.1
810,[22356],Ce1Fe1As0.9P0.1F0.05O0.95,Ce1Fe1As0.9P0.1F0.05O0.95,"{'As': 0.9, 'Ce': 1.0, 'F': 0.05, 'Fe': 1.0, 'O': 0.9500000000000001, 'P': 0.1}",19.3,19.3,0.0,1,Ce1 Fe1 As0.9 P0.1 F0.05 O0.95
811,[23259],Pr1Fe0.9Co0.1As0.9P0.1O1,Pr1Fe0.9Co0.1As0.9P0.1O1,"{'As': 0.9, 'Co': 0.1, 'Fe': 0.9, 'O': 1.0, 'P': 0.1, 'Pr': 1.0}",14.7,14.7,0.0,1,Pr1 Fe0.9 Co0.1 As0.9 P0.1 O1
812,[24544],La1Fe1As0.9P0.1F0.05O0.95,La1Fe1As0.9P0.1F0.05O0.95,"{'As': 0.9, 'F': 0.05, 'Fe': 1.0, 'La': 1.0, 'O': 0.9500000000000001, 'P': 0.1}",23.6,23.6,0.0,1,La1 Fe1 As0.9 P0.1 F0.05 O0.95
813,[24666],Pr1Fe1As0.9P0.1F0.1O0.9,Pr1Fe1As0.9P0.1F0.1O0.9,"{'As': 0.9, 'F': 0.1, 'Fe': 1.0, 'O': 0.9, 'P': 0.1, 'Pr': 1.0}",35.2,35.2,0.0,1,Pr1 Fe1 As0.9 P0.1 F0.1 O0.9
814,[23797],Sm1Fe1As0.9P0.1F0.12O0.88,Sm1Fe1As0.9P0.1F0.12O0.88,"{'As': 0.9, 'F': 0.12, 'Fe': 1.0, 'O': 0.88, 'P': 0.1, 'Sm': 1.0}",36.35,36.35,0.0,1,Sm1 Fe1 As0.9 P0.1 F0.12 O0.88
815,[22557],La1Fe1As0.9Sb0.1F0.2O0.8,La1Fe1As0.9Sb0.1F0.2O0.8,"{'As': 0.9, 'F': 0.2, 'Fe': 1.0, 'La': 1.0, 'O': 0.8, 'Sb': 0.1}",28.6,28.6,0.0,1,La1 Fe1 As0.9 Sb0.1 F0.2 O0.8
816,[25543],La1Fe1As0.9P0.1H0.25O0.75,La1Fe1As0.9P0.1H0.25O0.75,"{'As': 0.9, 'Fe': 1.0, 'H': 0.25, 'La': 1.0, 'O': 0.75, 'P': 0.1}",7.6,7.6,0.0,1,La1 Fe1 As0.9 P0.1 H0.25 O0.75
817,[25545],La1Fe1As0.9P0.1H0.3O0.3,La1Fe1As0.9P0.1H0.3O0.3,"{'As': 0.9, 'Fe': 1.0, 'H': 0.30000000000000004, 'La': 1.0, 'O': 0.30000000000000004, 'P': 0.1}",20.0,20.0,0.0,1,La1 Fe1 As0.9 P0.1 H0.3 O0.3
818,[24410],La1Fe1As0.9P0.1O1,La1Fe1As0.9P0.1O1,"{'As': 0.9, 'Fe': 1.0, 'La': 1.0, 'O': 1.0, 'P': 0.1}",0.0,0.0,0.0,1,La1 Fe1 As0.9 P0.1 O1
819,[23372],Pr0.65Sr0.35Fe1As0.9P0.1O1,Pr0.65Sr0.35Fe1As0.9P0.1O1,"{'As': 0.9, 'Fe': 1.0, 'O': 1.0, 'P': 0.1, 'Pr': 0.65, 'Sr': 0.35000000000000003}",0.0,0.0,0.0,1,Pr0.65 Sr0.35 Fe1 As0.9 P0.1 O1
820,[23373],Pr0.6Sr0.4Fe1As0.9Sb0.1O1,Pr0.6Sr0.4Fe1As0.9Sb0.1O1,"{'As': 0.9, 'Fe': 1.0, 'O': 1.0, 'Pr': 0.6000000000000001, 'Sb': 0.1, 'Sr': 0.4}",22.0,22.0,0.0,1,Pr0.6 Sr0.4 Fe1 As0.9 Sb0.1 O1
821,[23368],Pr0.65Sr0.35Fe1As0.9Sb0.1O1,Pr0.65Sr0.35Fe1As0.9Sb0.1O1,"{'As': 0.9, 'Fe': 1.0, 'O': 1.0, 'Pr': 0.65, 'Sb': 0.1, 'Sr': 0.35000000000000003}",21.87,21.87,0.0,1,Pr0.65 Sr0.35 Fe1 As0.9 Sb0.1 O1
822,"[25134, 25297]",Sn1As0.9Se0.1,Sn1As0.9Se0.1,"{'As': 0.9, 'Se': 0.1, 'Sn': 1.0}",4.5,4.5,0.0,2,Sn1 As0.9 Se0.1
823,"[25133, 25296]",Sn1As0.93Se0.07,Sn1As0.93Se0.07,"{'As': 0.93, 'Se': 0.07, 'Sn': 1.0}",4.3,4.3,0.0,2,Sn1 As0.93 Se0.07
824,[22355],Ce1Fe1As0.95P0.05F0.05O0.95,Ce1Fe1As0.95P0.05F0.05O0.95,"{'As': 0.9500000000000001, 'Ce': 1.0, 'F': 0.05, 'Fe': 1.0, 'O': 0.9500000000000001, 'P': 0.05}",17.2,17.2,0.0,1,Ce1 Fe1 As0.95 P0.05 F0.05 O0.95
825,[23258],Pr1Fe0.9Co0.1As0.95P0.05O1,Pr1Fe0.9Co0.1As0.95P0.05O1,"{'As': 0.9500000000000001, 'Co': 0.1, 'Fe': 0.9, 'O': 1.0, 'P': 0.05, 'Pr': 1.0}",14.2,14.2,0.0,1,Pr1 Fe0.9 Co0.1 As0.95 P0.05 O1
826,[23796],Sm1Fe1As0.95P0.05F0.12O0.88,Sm1Fe1As0.95P0.05F0.12O0.88,"{'As': 0.9500000000000001, 'F': 0.12, 'Fe': 1.0, 'O': 0.88, 'P': 0.05, 'Sm': 1.0}",46.8,46.8,0.0,1,Sm1 Fe1 As0.95 P0.05 F0.12 O0.88
827,[22556],La1Fe1As0.95Sb0.05F0.2O0.8,La1Fe1As0.95Sb0.05F0.2O0.8,"{'As': 0.9500000000000001, 'F': 0.2, 'Fe': 1.0, 'La': 1.0, 'O': 0.8, 'Sb': 0.05}",30.1,30.1,0.0,1,La1 Fe1 As0.95 Sb0.05 F0.2 O0.8
828,[23371],Pr0.65Sr0.35Fe1As0.95P0.05O1,Pr0.65Sr0.35Fe1As0.95P0.05O1,"{'As': 0.9500000000000001, 'Fe': 1.0, 'O': 1.0, 'P': 0.05, 'Pr': 0.65, 'Sr': 0.35000000000000003}",15.4,15.4,0.0,1,Pr0.65 Sr0.35 Fe1 As0.95 P0.05 O1
829,"[25132, 25295]",Sn1As0.95Se0.05,Sn1As0.95Se0.05,"{'As': 0.9500000000000001, 'Se': 0.05, 'Sn': 1.0}",4.3,4.3,0.0,2,Sn1 As0.95 Se0.05
830,"[25131, 25294]",Sn1As0.97Se0.03,Sn1As0.97Se0.03,"{'As': 0.97, 'Se': 0.03, 'Sn': 1.0}",4.0,4.0,0.0,2,Sn1 As0.97 Se0.03
831,"[25130, 25293]",Sn1As0.99Se0.01,Sn1As0.99Se0.01,"{'As': 0.99, 'Se': 0.01, 'Sn': 1.0}",3.8,3.8,0.0,2,Sn1 As0.99 Se0.01
832,"[12551, 17491, 18422, 20137]",As1,As1,{'As': 1.0},2.7,1.8250000000000002,0.9705024472,4,As1
833,[22574],Nd0.8Ba0.2Fe1As1F0.4O0.6,Nd0.8Ba0.2Fe1As1F0.4O0.6,"{'As': 1.0, 'Ba': 0.2, 'F': 0.4, 'Fe': 1.0, 'Nd': 0.8, 'O': 0.6000000000000001}",50.03,50.03,0.0,1,Nd0.8 Ba0.2 Fe1 As1 F0.4 O0.6
834,"[25597, 25598, 25599]",Ba1Pt1As1,Ba1Pt1As1,"{'As': 1.0, 'Ba': 1.0, 'Pt': 1.0}",2.895,2.63,0.3100268806,3,Ba1 Pt1 As1
835,"[12906, 14878]",As1Bi1Pb1,As1Bi1Pb1,"{'As': 1.0, 'Bi': 1.0, 'Pb': 1.0}",9.0,9.0,0.0,2,As1 Bi1 Pb1
836,"[12905, 14890]",As1Bi1Pb1Sb1,As1Bi1Pb1Sb1,"{'As': 1.0, 'Bi': 1.0, 'Pb': 1.0, 'Sb': 1.0}",9.0,9.0,0.0,2,As1 Bi1 Pb1 Sb1
837,[20236],Nb2As1C1,Nb2As1C1,"{'As': 1.0, 'C': 1.0, 'Nb': 2.0}",2.0,2.0,0.0,1,Nb2 As1 C1
838,[23481],Sr1.9Ca0.1V1Fe1As1O3,Sr1.9Ca0.1V1Fe1As1O3,"{'As': 1.0, 'Ca': 0.1, 'Fe': 1.0, 'O': 3.0, 'Sr': 1.9, 'V': 1.0}",25.8,25.8,0.0,1,Sr1.9 Ca0.1 V1 Fe1 As1 O3
839,[23482],Sr1.8Ca0.2V1Fe1As1O3,Sr1.8Ca0.2V1Fe1As1O3,"{'As': 1.0, 'Ca': 0.2, 'Fe': 1.0, 'O': 3.0, 'Sr': 1.8, 'V': 1.0}",13.7,13.7,0.0,1,Sr1.8 Ca0.2 V1 Fe1 As1 O3
840,[23483],Sr1.7Ca0.3V1Fe1As1O3,Sr1.7Ca0.3V1Fe1As1O3,"{'As': 1.0, 'Ca': 0.30000000000000004, 'Fe': 1.0, 'O': 3.0, 'Sr': 1.7000000000000002, 'V': 1.0}",0.8,0.8,0.0,1,Sr1.7 Ca0.3 V1 Fe1 As1 O3
841,[21387],Ca0.4Nd0.6Fe1As1F1,Ca0.4Nd0.6Fe1As1F1,"{'As': 1.0, 'Ca': 0.4, 'F': 1.0, 'Fe': 1.0, 'Nd': 0.6000000000000001}",54.0,54.0,0.0,1,Ca0.4 Nd0.6 Fe1 As1 F1
842,[21388],Ca0.4Pr0.6Fe1As1F1,Ca0.4Pr0.6Fe1As1F1,"{'As': 1.0, 'Ca': 0.4, 'F': 1.0, 'Fe': 1.0, 'Pr': 0.6000000000000001}",50.0,50.0,0.0,1,Ca0.4 Pr0.6 Fe1 As1 F1
843,[22595],Tb0.56Ca0.44Fe1As1O1,Tb0.56Ca0.44Fe1As1O1,"{'As': 1.0, 'Ca': 0.44, 'Fe': 1.0, 'O': 1.0, 'Tb': 0.56}",15.6,15.6,0.0,1,Tb0.56 Ca0.44 Fe1 As1 O1
844,[23745],Ca0.7La0.3Fe1As1H1,Ca0.7La0.3Fe1As1H1,"{'As': 1.0, 'Ca': 0.7000000000000001, 'Fe': 1.0, 'H': 1.0, 'La': 0.30000000000000004}",35.7,35.7,0.0,1,Ca0.7 La0.3 Fe1 As1 H1
845,[23744],Ca0.8La0.2Fe1As1H1,Ca0.8La0.2Fe1As1H1,"{'As': 1.0, 'Ca': 0.8, 'Fe': 1.0, 'H': 1.0, 'La': 0.2}",40.6,40.6,0.0,1,Ca0.8 La0.2 Fe1 As1 H1
846,[23743],Ca0.9La0.1Fe1As1H1,Ca0.9La0.1Fe1As1H1,"{'As': 1.0, 'Ca': 0.9, 'Fe': 1.0, 'H': 1.0, 'La': 0.1}",28.2,28.2,0.0,1,Ca0.9 La0.1 Fe1 As1 H1
847,[23943],Ca1Fe0.93Co0.07As1H1,Ca1Fe0.93Co0.07As1H1,"{'As': 1.0, 'Ca': 1.0, 'Co': 0.07, 'Fe': 0.93, 'H': 1.0}",23.0,23.0,0.0,1,Ca1 Fe0.93 Co0.07 As1 H1
848,[23944],Ca1Fe0.91Co0.09As1H1,Ca1Fe0.91Co0.09As1H1,"{'As': 1.0, 'Ca': 1.0, 'Co': 0.09, 'Fe': 0.91, 'H': 1.0}",22.7,22.7,0.0,1,Ca1 Fe0.91 Co0.09 As1 H1
849,"[21061, 21439, 23872]",Ca1Fe0.9Co0.1As1F1,Ca1Fe0.9Co0.1As1F1,"{'As': 1.0, 'Ca': 1.0, 'Co': 0.1, 'F': 1.0, 'Fe': 0.9}",23.8,22.9333333333,0.7363574011,3,Ca1 Fe0.9 Co0.1 As1 F1
850,[23945],Ca1Fe0.88Co0.12As1H1,Ca1Fe0.88Co0.12As1H1,"{'As': 1.0, 'Ca': 1.0, 'Co': 0.12, 'Fe': 0.88, 'H': 1.0}",23.2,23.2,0.0,1,Ca1 Fe0.88 Co0.12 As1 H1
851,"[21062, 21440]",Ca1Fe0.85Co0.15As1F1,Ca1Fe0.85Co0.15As1F1,"{'As': 1.0, 'Ca': 1.0, 'Co': 0.15, 'F': 1.0, 'Fe': 0.85}",21.2,20.8,0.4,2,Ca1 Fe0.85 Co0.15 As1 F1
852,[23946],Ca1Fe0.83Co0.17As1H1,Ca1Fe0.83Co0.17As1H1,"{'As': 1.0, 'Ca': 1.0, 'Co': 0.17, 'Fe': 0.8300000000000001, 'H': 1.0}",19.0,19.0,0.0,1,Ca1 Fe0.83 Co0.17 As1 H1
853,"[21063, 21441]",Ca1Fe0.8Co0.2As1F1,Ca1Fe0.8Co0.2As1F1,"{'As': 1.0, 'Ca': 1.0, 'Co': 0.2, 'F': 1.0, 'Fe': 0.8}",16.6,16.5,0.1,2,Ca1 Fe0.8 Co0.2 As1 F1
854,[23947],Ca1Fe0.78Co0.22As1H1,Ca1Fe0.78Co0.22As1H1,"{'As': 1.0, 'Ca': 1.0, 'Co': 0.22, 'Fe': 0.78, 'H': 1.0}",13.3,13.3,0.0,1,Ca1 Fe0.78 Co0.22 As1 H1
855,[21064],Ca1Fe0.74Co0.26As1F1,Ca1Fe0.74Co0.26As1F1,"{'As': 1.0, 'Ca': 1.0, 'Co': 0.26, 'F': 1.0, 'Fe': 0.74}",3.49,3.49,0.0,1,Ca1 Fe0.74 Co0.26 As1 F1
856,[23948],Ca1Fe0.74Co0.26As1H1,Ca1Fe0.74Co0.26As1H1,"{'As': 1.0, 'Ca': 1.0, 'Co': 0.26, 'Fe': 0.74, 'H': 1.0}",8.95,8.95,0.0,1,Ca1 Fe0.74 Co0.26 As1 H1
857,[24120],Ca1Fe1As1F0.8H0.2,Ca1Fe1As1F0.8H0.2,"{'As': 1.0, 'Ca': 1.0, 'F': 0.8, 'Fe': 1.0, 'H': 0.2}",29.0,29.0,0.0,1,Ca1 Fe1 As1 F0.8 H0.2
858,[21067],Ca1Fe0.8Ni0.2As1F1,Ca1Fe0.8Ni0.2As1F1,"{'As': 1.0, 'Ca': 1.0, 'F': 1.0, 'Fe': 0.8, 'Ni': 0.2}",3.92,3.92,0.0,1,Ca1 Fe0.8 Ni0.2 As1 F1
859,[21066],Ca1Fe0.85Ni0.15As1F1,Ca1Fe0.85Ni0.15As1F1,"{'As': 1.0, 'Ca': 1.0, 'F': 1.0, 'Fe': 0.85, 'Ni': 0.15}",8.72,8.72,0.0,1,Ca1 Fe0.85 Ni0.15 As1 F1
860,[22629],Ca1Fe0.85Rh0.15As1F1,Ca1Fe0.85Rh0.15As1F1,"{'As': 1.0, 'Ca': 1.0, 'F': 1.0, 'Fe': 0.85, 'Rh': 0.15}",18.4,18.4,0.0,1,Ca1 Fe0.85 Rh0.15 As1 F1
861,[21065],Ca1Fe0.9Ni0.1As1F1,Ca1Fe0.9Ni0.1As1F1,"{'As': 1.0, 'Ca': 1.0, 'F': 1.0, 'Fe': 0.9, 'Ni': 0.1}",15.4,15.4,0.0,1,Ca1 Fe0.9 Ni0.1 As1 F1
862,[22628],Ca1Fe0.92Rh0.08As1F1,Ca1Fe0.92Rh0.08As1F1,"{'As': 1.0, 'Ca': 1.0, 'F': 1.0, 'Fe': 0.92, 'Rh': 0.08}",22.2,22.2,0.0,1,Ca1 Fe0.92 Rh0.08 As1 F1
863,[22627],Ca1Fe0.95Rh0.05As1F1,Ca1Fe0.95Rh0.05As1F1,"{'As': 1.0, 'Ca': 1.0, 'F': 1.0, 'Fe': 0.9500000000000001, 'Rh': 0.05}",3.81,3.81,0.0,1,Ca1 Fe0.95 Rh0.05 As1 F1
864,"[21438, 25746, 25747]",Ca1Fe1As1F1,Ca1Fe1As1F1,"{'As': 1.0, 'Ca': 1.0, 'F': 1.0, 'Fe': 1.0}",29.0,23.4,5.7463031594,3,Ca1 Fe1 As1 F1
865,[21183],Ce0.62Gd0.38Fe1As1F0.175O0.825,Ce0.62Gd0.38Fe1As1F0.175O0.825,"{'As': 1.0, 'Ce': 0.62, 'F': 0.17500000000000002, 'Fe': 1.0, 'Gd': 0.38, 'O': 0.8250000000000001}",44.0,44.0,0.0,1,Ce0.62 Gd0.38 Fe1 As1 F0.175 O0.825
866,[24245],Ce1Fe0.98Co0.02As1H1,Ce1Fe0.98Co0.02As1H1,"{'As': 1.0, 'Ce': 1.0, 'Co': 0.02, 'Fe': 0.98, 'H': 1.0}",2.0,2.0,0.0,1,Ce1 Fe0.98 Co0.02 As1 H1
867,[24246],Ce1Fe0.96Co0.04As1H1,Ce1Fe0.96Co0.04As1H1,"{'As': 1.0, 'Ce': 1.0, 'Co': 0.04, 'Fe': 0.96, 'H': 1.0}",2.0,2.0,0.0,1,Ce1 Fe0.96 Co0.04 As1 H1
868,[21975],Ce1Fe0.95Co0.05As1F0.1O0.9,Ce1Fe0.95Co0.05As1F0.1O0.9,"{'As': 1.0, 'Ce': 1.0, 'Co': 0.05, 'F': 0.1, 'Fe': 0.9500000000000001, 'O': 0.9}",23.5,23.5,0.0,1,Ce1 Fe0.95 Co0.05 As1 F0.1 O0.9
869,[24247],Ce1Fe0.93Co0.07As1H1,Ce1Fe0.93Co0.07As1H1,"{'As': 1.0, 'Ce': 1.0, 'Co': 0.07, 'Fe': 0.93, 'H': 1.0}",23.0,23.0,0.0,1,Ce1 Fe0.93 Co0.07 As1 H1
870,[24248],Ce1Fe0.91Co0.09As1H1,Ce1Fe0.91Co0.09As1H1,"{'As': 1.0, 'Ce': 1.0, 'Co': 0.09, 'Fe': 0.91, 'H': 1.0}",23.0,23.0,0.0,1,Ce1 Fe0.91 Co0.09 As1 H1
871,[21976],Ce1Fe0.9Co0.1As1F0.1O0.9,Ce1Fe0.9Co0.1As1F0.1O0.9,"{'As': 1.0, 'Ce': 1.0, 'Co': 0.1, 'F': 0.1, 'Fe': 0.9, 'O': 0.9}",9.8,9.8,0.0,1,Ce1 Fe0.9 Co0.1 As1 F0.1 O0.9
872,[20895],Ce1Fe0.9Co0.1As1O1,Ce1Fe0.9Co0.1As1O1,"{'As': 1.0, 'Ce': 1.0, 'Co': 0.1, 'Fe': 0.9, 'O': 1.0}",10.0,10.0,0.0,1,Ce1 Fe0.9 Co0.1 As1 O1
873,[24249],Ce1Fe0.88Co0.12As1H1,Ce1Fe0.88Co0.12As1H1,"{'As': 1.0, 'Ce': 1.0, 'Co': 0.12, 'Fe': 0.88, 'H': 1.0}",23.0,23.0,0.0,1,Ce1 Fe0.88 Co0.12 As1 H1
874,[21977],Ce1Fe0.85Co0.15As1F0.1O0.9,Ce1Fe0.85Co0.15As1F0.1O0.9,"{'As': 1.0, 'Ce': 1.0, 'Co': 0.15, 'F': 0.1, 'Fe': 0.85, 'O': 0.9}",4.0,4.0,0.0,1,Ce1 Fe0.85 Co0.15 As1 F0.1 O0.9