,sc_id,supercon_formula,cleaned_formula,material_dict,highest_Tc,average_Tc,std_Tc,entry_count,composition
5347,"[9114, 10041]",Y1Ba2Cu2.925Mn0.075O7-Z,Y1Ba2Cu2.925Mn0.075O7,"{'Ba': 2.0, 'Cu': 2.925, 'Mn': 0.075, 'O': 7.0, 'Y': 1.0}",90.75,87.875,2.875,2,Y1 Ba2 Cu2.925 Mn0.075 O7
5348,[8556],Nd1Ba2Cu2.925Ni0.075O7-y,Nd1Ba2Cu2.925Ni0.075O7,"{'Ba': 2.0, 'Cu': 2.925, 'Nd': 1.0, 'Ni': 0.075, 'O': 7.0}",80.0,80.0,0.0,1,Nd1 Ba2 Cu2.925 Ni0.075 O7
5349,[8574],Tm1Ba2Cu2.925Ni0.075O7-y,Tm1Ba2Cu2.925Ni0.075O7,"{'Ba': 2.0, 'Cu': 2.925, 'Ni': 0.075, 'O': 7.0, 'Tm': 1.0}",86.0,86.0,0.0,1,Tm1 Ba2 Cu2.925 Ni0.075 O7
5350,"[2967, 8562]",Y1Ba2Cu2.925Ni0.075O7-Z,Y1Ba2Cu2.925Ni0.075O7,"{'Ba': 2.0, 'Cu': 2.925, 'Ni': 0.075, 'O': 7.0, 'Y': 1.0}",82.1,81.05,1.05,2,Y1 Ba2 Cu2.925 Ni0.075 O7
5351,[995],Y1Ba2Cu2.925Zn0.075O6.85,Y1Ba2Cu2.925Zn0.075O6.85,"{'Ba': 2.0, 'Cu': 2.925, 'O': 6.85, 'Y': 1.0, 'Zn': 0.075}",63.6,63.6,0.0,1,Y1 Ba2 Cu2.925 Zn0.075 O6.85
5352,[985],Y1Ba2Cu2.925Zn0.075O6.94,Y1Ba2Cu2.925Zn0.075O6.94,"{'Ba': 2.0, 'Cu': 2.925, 'O': 6.94, 'Y': 1.0, 'Zn': 0.075}",65.0,65.0,0.0,1,Y1 Ba2 Cu2.925 Zn0.075 O6.94
5353,"[2197, 8097]",Y1Ba2Cu2.925Zn0.075O7-Z,Y1Ba2Cu2.925Zn0.075O7,"{'Ba': 2.0, 'Cu': 2.925, 'O': 7.0, 'Y': 1.0, 'Zn': 0.075}",60.2,59.6,0.6000000000000001,2,Y1 Ba2 Cu2.925 Zn0.075 O7
5354,[3768],Y1Ba2Cu2.93Fe0.03O7,Y1Ba2Cu2.93Fe0.03O7,"{'Ba': 2.0, 'Cu': 2.93, 'Fe': 0.03, 'O': 7.0, 'Y': 1.0}",90.1,90.1,0.0,1,Y1 Ba2 Cu2.93 Fe0.03 O7
5355,[8030],Nb1Ba2Cu2.93Ga0.07O7-y,Nb1Ba2Cu2.93Ga0.07O7,"{'Ba': 2.0, 'Cu': 2.93, 'Ga': 0.07, 'Nb': 1.0, 'O': 7.0}",52.0,52.0,0.0,1,Nb1 Ba2 Cu2.93 Ga0.07 O7
5356,[9061],Y1Ba2Cu2.931Zn0.069O6.6,Y1Ba2Cu2.931Zn0.069O6.6,"{'Ba': 2.0, 'Cu': 2.931, 'O': 6.6, 'Y': 1.0, 'Zn': 0.069}",20.0,20.0,0.0,1,Y1 Ba2 Cu2.931 Zn0.069 O6.6
5357,[9059],Y1Ba2Cu2.931Zn0.069O6.7,Y1Ba2Cu2.931Zn0.069O6.7,"{'Ba': 2.0, 'Cu': 2.931, 'O': 6.7, 'Y': 1.0, 'Zn': 0.069}",28.0,28.0,0.0,1,Y1 Ba2 Cu2.931 Zn0.069 O6.7
5358,[8484],Dy1Ba2Cu2.94Fe0.06O6.88,Dy1Ba2Cu2.94Fe0.06O6.88,"{'Ba': 2.0, 'Cu': 2.94, 'Dy': 1.0, 'Fe': 0.06, 'O': 6.88}",78.0,78.0,0.0,1,Dy1 Ba2 Cu2.94 Fe0.06 O6.88
5359,[8499],Dy1Ba2Cu2.94Ni0.06O6.72,Dy1Ba2Cu2.94Ni0.06O6.72,"{'Ba': 2.0, 'Cu': 2.94, 'Dy': 1.0, 'Ni': 0.06, 'O': 6.72}",81.0,81.0,0.0,1,Dy1 Ba2 Cu2.94 Ni0.06 O6.72
5360,[8514],Dy1Ba2Cu2.94Zn0.06O6.9,Dy1Ba2Cu2.94Zn0.06O6.9,"{'Ba': 2.0, 'Cu': 2.94, 'Dy': 1.0, 'O': 6.9, 'Zn': 0.06}",62.0,62.0,0.0,1,Dy1 Ba2 Cu2.94 Zn0.06 O6.9
5361,[8436],Dy1Ba2Cu2.94Zn0.06O7-y,Dy1Ba2Cu2.94Zn0.06O7,"{'Ba': 2.0, 'Cu': 2.94, 'Dy': 1.0, 'O': 7.0, 'Zn': 0.06}",68.8,68.8,0.0,1,Dy1 Ba2 Cu2.94 Zn0.06 O7
5362,[9628],Er1Ba2Cu2.94Zn0.03Fe0.03O6.94,Er1Ba2Cu2.94Zn0.03Fe0.03O6.94,"{'Ba': 2.0, 'Cu': 2.94, 'Er': 1.0, 'Fe': 0.03, 'O': 6.94, 'Zn': 0.03}",76.0,76.0,0.0,1,Er1 Ba2 Cu2.94 Zn0.03 Fe0.03 O6.94
5363,[9622],Er1Ba2Cu2.94Zn0.06O6.92,Er1Ba2Cu2.94Zn0.06O6.92,"{'Ba': 2.0, 'Cu': 2.94, 'Er': 1.0, 'O': 6.92, 'Zn': 0.06}",69.0,69.0,0.0,1,Er1 Ba2 Cu2.94 Zn0.06 O6.92
5364,[8420],Er1Ba2Cu2.94Zn0.06O7-y,Er1Ba2Cu2.94Zn0.06O7,"{'Ba': 2.0, 'Cu': 2.94, 'Er': 1.0, 'O': 7.0, 'Zn': 0.06}",68.3,68.3,0.0,1,Er1 Ba2 Cu2.94 Zn0.06 O7
5365,[8452],Eu1Ba2Cu2.94Zn0.06O7-y,Eu1Ba2Cu2.94Zn0.06O7,"{'Ba': 2.0, 'Cu': 2.94, 'Eu': 1.0, 'O': 7.0, 'Zn': 0.06}",65.9,65.9,0.0,1,Eu1 Ba2 Cu2.94 Zn0.06 O7
5366,[22578],Gd0.95Pr0.05Ba2Cu2.94Fe0.06O7-z,Gd0.95Pr0.05Ba2Cu2.94Fe0.06O7,"{'Ba': 2.0, 'Cu': 2.94, 'Fe': 0.06, 'Gd': 0.9500000000000001, 'O': 7.0, 'Pr': 0.05}",54.5,54.5,0.0,1,Gd0.95 Pr0.05 Ba2 Cu2.94 Fe0.06 O7
5367,[1455],Gd1Ba2Cu2.94Fe0.06O7-Z,Gd1Ba2Cu2.94Fe0.06O7,"{'Ba': 2.0, 'Cu': 2.94, 'Fe': 0.06, 'Gd': 1.0, 'O': 7.0}",85.0,85.0,0.0,1,Gd1 Ba2 Cu2.94 Fe0.06 O7
5368,[4640],Y1Ba2Cu2.94Fe0.06H0.4O7,Y1Ba2Cu2.94Fe0.06H0.4O7,"{'Ba': 2.0, 'Cu': 2.94, 'Fe': 0.06, 'H': 0.4, 'O': 7.0, 'Y': 1.0}",47.0,47.0,0.0,1,Y1 Ba2 Cu2.94 Fe0.06 H0.4 O7
5369,[4641],Y1Ba2Cu2.94Fe0.06H1O7,Y1Ba2Cu2.94Fe0.06H1O7,"{'Ba': 2.0, 'Cu': 2.94, 'Fe': 0.06, 'H': 1.0, 'O': 7.0, 'Y': 1.0}",30.0,30.0,0.0,1,Y1 Ba2 Cu2.94 Fe0.06 H1 O7
5370,[2156],Y1Ba2Cu2.94Fe0.06O6.85,Y1Ba2Cu2.94Fe0.06O6.85,"{'Ba': 2.0, 'Cu': 2.94, 'Fe': 0.06, 'O': 6.85, 'Y': 1.0}",85.0,85.0,0.0,1,Y1 Ba2 Cu2.94 Fe0.06 O6.85
5371,[3312],Y1Ba2Cu2.94Fe0.06O6.89,Y1Ba2Cu2.94Fe0.06O6.89,"{'Ba': 2.0, 'Cu': 2.94, 'Fe': 0.06, 'O': 6.89, 'Y': 1.0}",87.5,87.5,0.0,1,Y1 Ba2 Cu2.94 Fe0.06 O6.89
5372,[8257],Y1Ba2Cu2.94Fe0.06O6.929,Y1Ba2Cu2.94Fe0.06O6.929,"{'Ba': 2.0, 'Cu': 2.94, 'Fe': 0.06, 'O': 6.929, 'Y': 1.0}",85.0,85.0,0.0,1,Y1 Ba2 Cu2.94 Fe0.06 O6.929
5373,[3313],Y1Ba2Cu2.94Fe0.06O6.954,Y1Ba2Cu2.94Fe0.06O6.954,"{'Ba': 2.0, 'Cu': 2.94, 'Fe': 0.06, 'O': 6.954, 'Y': 1.0}",76.6,76.6,0.0,1,Y1 Ba2 Cu2.94 Fe0.06 O6.954
5374,[8476],Sm1Ba2Cu2.94Fe0.06O7-z,Sm1Ba2Cu2.94Fe0.06O7,"{'Ba': 2.0, 'Cu': 2.94, 'Fe': 0.06, 'O': 7.0, 'Sm': 1.0}",71.0,71.0,0.0,1,Sm1 Ba2 Cu2.94 Fe0.06 O7
5375,"[88, 1023, 1348, 1835, 2005, 4639]",Y1Ba2Cu2.94Fe0.06O7,Y1Ba2Cu2.94Fe0.06O7,"{'Ba': 2.0, 'Cu': 2.94, 'Fe': 0.06, 'O': 7.0, 'Y': 1.0}",89.3,79.4666666667,10.1254903859,6,Y1 Ba2 Cu2.94 Fe0.06 O7
5376,[8262],Y1Ba2Cu2.94Fe0.06O7.254,Y1Ba2Cu2.94Fe0.06O7.254,"{'Ba': 2.0, 'Cu': 2.94, 'Fe': 0.06, 'O': 7.254, 'Y': 1.0}",91.0,91.0,0.0,1,Y1 Ba2 Cu2.94 Fe0.06 O7.254
5377,[8029],Nb1Ba2Cu2.94Ga0.06O7-y,Nb1Ba2Cu2.94Ga0.06O7,"{'Ba': 2.0, 'Cu': 2.94, 'Ga': 0.06, 'Nb': 1.0, 'O': 7.0}",56.2,56.2,0.0,1,Nb1 Ba2 Cu2.94 Ga0.06 O7
5378,"[290, 755, 840]",Y1Ba2Cu2.94Ga0.06O7-Z,Y1Ba2Cu2.94Ga0.06O7,"{'Ba': 2.0, 'Cu': 2.94, 'Ga': 0.06, 'O': 7.0, 'Y': 1.0}",87.99,87.2966666667,0.4919575411,3,Y1 Ba2 Cu2.94 Ga0.06 O7
5379,[22577],Gd0.95Pr0.05Ba2Cu2.94Mn0.06O7-z,Gd0.95Pr0.05Ba2Cu2.94Mn0.06O7,"{'Ba': 2.0, 'Cu': 2.94, 'Gd': 0.9500000000000001, 'Mn': 0.06, 'O': 7.0, 'Pr': 0.05}",68.0,68.0,0.0,1,Gd0.95 Pr0.05 Ba2 Cu2.94 Mn0.06 O7
5380,[22579],Gd0.95Pr0.05Ba2Cu2.94Ni0.06O7-z,Gd0.95Pr0.05Ba2Cu2.94Ni0.06O7,"{'Ba': 2.0, 'Cu': 2.94, 'Gd': 0.9500000000000001, 'Ni': 0.06, 'O': 7.0, 'Pr': 0.05}",64.0,64.0,0.0,1,Gd0.95 Pr0.05 Ba2 Cu2.94 Ni0.06 O7
5381,[22580],Gd0.95Pr0.05Ba2Cu2.94Zn0.06O7-z,Gd0.95Pr0.05Ba2Cu2.94Zn0.06O7,"{'Ba': 2.0, 'Cu': 2.94, 'Gd': 0.9500000000000001, 'O': 7.0, 'Pr': 0.05, 'Zn': 0.06}",46.2,46.2,0.0,1,Gd0.95 Pr0.05 Ba2 Cu2.94 Zn0.06 O7
5382,[8444],Gd1Ba2Cu2.94Zn0.06O7-y,Gd1Ba2Cu2.94Zn0.06O7,"{'Ba': 2.0, 'Cu': 2.94, 'Gd': 1.0, 'O': 7.0, 'Zn': 0.06}",65.9,65.9,0.0,1,Gd1 Ba2 Cu2.94 Zn0.06 O7
5383,[7516],Ho1Ba2Cu2.94O6.48,Ho1Ba2Cu2.94O6.48,"{'Ba': 2.0, 'Cu': 2.94, 'Ho': 1.0, 'O': 6.48}",20.0,20.0,0.0,1,Ho1 Ba2 Cu2.94 O6.48
5384,[7515],Ho1Ba2Cu2.94O6.94,Ho1Ba2Cu2.94O6.94,"{'Ba': 2.0, 'Cu': 2.94, 'Ho': 1.0, 'O': 6.94}",77.0,77.0,0.0,1,Ho1 Ba2 Cu2.94 O6.94
5385,[9906],Y1Ba2Cu2.94Li0.06O6.6,Y1Ba2Cu2.94Li0.06O6.6,"{'Ba': 2.0, 'Cu': 2.94, 'Li': 0.06, 'O': 6.6, 'Y': 1.0}",26.0,26.0,0.0,1,Y1 Ba2 Cu2.94 Li0.06 O6.6
5386,[9903],Y1Ba2Cu2.94Li0.06O7-Z,Y1Ba2Cu2.94Li0.06O7,"{'Ba': 2.0, 'Cu': 2.94, 'Li': 0.06, 'O': 7.0, 'Y': 1.0}",78.0,78.0,0.0,1,Y1 Ba2 Cu2.94 Li0.06 O7
5387,"[9113, 10040]",Y1Ba2Cu2.94Mn0.06O7-Z,Y1Ba2Cu2.94Mn0.06O7,"{'Ba': 2.0, 'Cu': 2.94, 'Mn': 0.06, 'O': 7.0, 'Y': 1.0}",91.01,91.005,0.005,2,Y1 Ba2 Cu2.94 Mn0.06 O7
5388,[8468],Nd1Ba2Cu2.94Zn0.06O7-y,Nd1Ba2Cu2.94Zn0.06O7,"{'Ba': 2.0, 'Cu': 2.94, 'Nd': 1.0, 'O': 7.0, 'Zn': 0.06}",64.1,64.1,0.0,1,Nd1 Ba2 Cu2.94 Zn0.06 O7
5389,[1395],Y1Ba2Cu2.94Ni0.06O6.47,Y1Ba2Cu2.94Ni0.06O6.47,"{'Ba': 2.0, 'Cu': 2.94, 'Ni': 0.06, 'O': 6.47, 'Y': 1.0}",23.0,23.0,0.0,1,Y1 Ba2 Cu2.94 Ni0.06 O6.47
5390,[1398],Y1Ba2Cu2.94Ni0.06O6.56,Y1Ba2Cu2.94Ni0.06O6.56,"{'Ba': 2.0, 'Cu': 2.94, 'Ni': 0.06, 'O': 6.5600000000000005, 'Y': 1.0}",37.5,37.5,0.0,1,Y1 Ba2 Cu2.94 Ni0.06 O6.56
5391,[1394],Y1Ba2Cu2.94Ni0.06O6.6,Y1Ba2Cu2.94Ni0.06O6.6,"{'Ba': 2.0, 'Cu': 2.94, 'Ni': 0.06, 'O': 6.6, 'Y': 1.0}",40.1,40.1,0.0,1,Y1 Ba2 Cu2.94 Ni0.06 O6.6
5392,[1397],Y1Ba2Cu2.94Ni0.06O6.64,Y1Ba2Cu2.94Ni0.06O6.64,"{'Ba': 2.0, 'Cu': 2.94, 'Ni': 0.06, 'O': 6.64, 'Y': 1.0}",43.1,43.1,0.0,1,Y1 Ba2 Cu2.94 Ni0.06 O6.64
5393,[1396],Y1Ba2Cu2.94Ni0.06O6.7,Y1Ba2Cu2.94Ni0.06O6.7,"{'Ba': 2.0, 'Cu': 2.94, 'Ni': 0.06, 'O': 6.7, 'Y': 1.0}",47.4,47.4,0.0,1,Y1 Ba2 Cu2.94 Ni0.06 O6.7
5394,[1393],Y1Ba2Cu2.94Ni0.06O6.78,Y1Ba2Cu2.94Ni0.06O6.78,"{'Ba': 2.0, 'Cu': 2.94, 'Ni': 0.06, 'O': 6.78, 'Y': 1.0}",64.6,64.6,0.0,1,Y1 Ba2 Cu2.94 Ni0.06 O6.78
5395,[1392],Y1Ba2Cu2.94Ni0.06O6.9,Y1Ba2Cu2.94Ni0.06O6.9,"{'Ba': 2.0, 'Cu': 2.94, 'Ni': 0.06, 'O': 6.9, 'Y': 1.0}",86.3,86.3,0.0,1,Y1 Ba2 Cu2.94 Ni0.06 O6.9
5396,[5372],Y1Ba2Cu2.94Ni0.06O6.94,Y1Ba2Cu2.94Ni0.06O6.94,"{'Ba': 2.0, 'Cu': 2.94, 'Ni': 0.06, 'O': 6.94, 'Y': 1.0}",83.5,83.5,0.0,1,Y1 Ba2 Cu2.94 Ni0.06 O6.94
5397,[1391],Y1Ba2Cu2.94Ni0.06O6.97,Y1Ba2Cu2.94Ni0.06O6.97,"{'Ba': 2.0, 'Cu': 2.94, 'Ni': 0.06, 'O': 6.97, 'Y': 1.0}",85.0,85.0,0.0,1,Y1 Ba2 Cu2.94 Ni0.06 O6.97
5398,[8492],Sm1Ba2Cu2.94Ni0.06O7-z,Sm1Ba2Cu2.94Ni0.06O7,"{'Ba': 2.0, 'Cu': 2.94, 'Ni': 0.06, 'O': 7.0, 'Sm': 1.0}",76.0,76.0,0.0,1,Sm1 Ba2 Cu2.94 Ni0.06 O7
5399,"[1166, 1452, 1627, 1670, 1833, 3778, 8037, 8040]",Y1Ba2Cu2.94Ni0.06O7-Z,Y1Ba2Cu2.94Ni0.06O7,"{'Ba': 2.0, 'Cu': 2.94, 'Ni': 0.06, 'O': 7.0, 'Y': 1.0}",85.9,80.45,7.2022565908,8,Y1 Ba2 Cu2.94 Ni0.06 O7
5400,[412],Y1Ba2Cu2.94Ni0.06O7.01,Y1Ba2Cu2.94Ni0.06O7.01,"{'Ba': 2.0, 'Cu': 2.94, 'Ni': 0.06, 'O': 7.01, 'Y': 1.0}",85.0,85.0,0.0,1,Y1 Ba2 Cu2.94 Ni0.06 O7.01
5401,"[1373, 1383]",Y1Ba2Cu2.94Zn0.06O6.59,Y1Ba2Cu2.94Zn0.06O6.59,"{'Ba': 2.0, 'Cu': 2.94, 'O': 6.59, 'Y': 1.0, 'Zn': 0.06}",18.9,18.75,0.15,2,Y1 Ba2 Cu2.94 Zn0.06 O6.59
5402,"[7819, 9756]",Y1Ba2Cu2.94Zn0.06O6.63,Y1Ba2Cu2.94Zn0.06O6.63,"{'Ba': 2.0, 'Cu': 2.94, 'O': 6.63, 'Y': 1.0, 'Zn': 0.06}",30.0,25.0,5.0,2,Y1 Ba2 Cu2.94 Zn0.06 O6.63
5403,[1382],Y1Ba2Cu2.94Zn0.06O6.65,Y1Ba2Cu2.94Zn0.06O6.65,"{'Ba': 2.0, 'Cu': 2.94, 'O': 6.65, 'Y': 1.0, 'Zn': 0.06}",18.9,18.9,0.0,1,Y1 Ba2 Cu2.94 Zn0.06 O6.65
5404,"[7980, 9762]",Y1Ba2Cu2.94Zn0.06O6.68,Y1Ba2Cu2.94Zn0.06O6.68,"{'Ba': 2.0, 'Cu': 2.94, 'O': 6.68, 'Y': 1.0, 'Zn': 0.06}",25.0,22.5,2.5,2,Y1 Ba2 Cu2.94 Zn0.06 O6.68
5405,[7979],Y1Ba2Cu2.94Zn0.06O6.7,Y1Ba2Cu2.94Zn0.06O6.7,"{'Ba': 2.0, 'Cu': 2.94, 'O': 6.7, 'Y': 1.0, 'Zn': 0.06}",23.0,23.0,0.0,1,Y1 Ba2 Cu2.94 Zn0.06 O6.7
5406,[9765],Y1Ba2Cu2.94Zn0.06O6.73,Y1Ba2Cu2.94Zn0.06O6.73,"{'Ba': 2.0, 'Cu': 2.94, 'O': 6.73, 'Y': 1.0, 'Zn': 0.06}",35.0,35.0,0.0,1,Y1 Ba2 Cu2.94 Zn0.06 O6.73
5407,[7978],Y1Ba2Cu2.94Zn0.06O6.75,Y1Ba2Cu2.94Zn0.06O6.75,"{'Ba': 2.0, 'Cu': 2.94, 'O': 6.75, 'Y': 1.0, 'Zn': 0.06}",37.0,37.0,0.0,1,Y1 Ba2 Cu2.94 Zn0.06 O6.75
5408,[1372],Y1Ba2Cu2.94Zn0.06O6.76,Y1Ba2Cu2.94Zn0.06O6.76,"{'Ba': 2.0, 'Cu': 2.94, 'O': 6.76, 'Y': 1.0, 'Zn': 0.06}",41.1,41.1,0.0,1,Y1 Ba2 Cu2.94 Zn0.06 O6.76
5409,[7977],Y1Ba2Cu2.94Zn0.06O6.77,Y1Ba2Cu2.94Zn0.06O6.77,"{'Ba': 2.0, 'Cu': 2.94, 'O': 6.77, 'Y': 1.0, 'Zn': 0.06}",44.0,44.0,0.0,1,Y1 Ba2 Cu2.94 Zn0.06 O6.77
5410,[459],Y1Ba2Cu2.94Zr0.06O6.81,Y1Ba2Cu2.94Zr0.06O6.81,"{'Ba': 2.0, 'Cu': 2.94, 'O': 6.8100000000000005, 'Y': 1.0, 'Zr': 0.06}",92.3,92.3,0.0,1,Y1 Ba2 Cu2.94 Zr0.06 O6.81
5411,[9768],Y1Ba2Cu2.94Zn0.06O6.83,Y1Ba2Cu2.94Zn0.06O6.83,"{'Ba': 2.0, 'Cu': 2.94, 'O': 6.83, 'Y': 1.0, 'Zn': 0.06}",55.0,55.0,0.0,1,Y1 Ba2 Cu2.94 Zn0.06 O6.83
5412,[1381],Y1Ba2Cu2.94Zn0.06O6.84,Y1Ba2Cu2.94Zn0.06O6.84,"{'Ba': 2.0, 'Cu': 2.94, 'O': 6.84, 'Y': 1.0, 'Zn': 0.06}",60.8,60.8,0.0,1,Y1 Ba2 Cu2.94 Zn0.06 O6.84
5413,[8508],Sm1Ba2Cu2.94Zn0.06O6.85,Sm1Ba2Cu2.94Zn0.06O6.85,"{'Ba': 2.0, 'Cu': 2.94, 'O': 6.85, 'Sm': 1.0, 'Zn': 0.06}",59.0,59.0,0.0,1,Sm1 Ba2 Cu2.94 Zn0.06 O6.85
5414,"[1371, 9824]",Y1Ba2Cu2.94Zn0.06O6.9,Y1Ba2Cu2.94Zn0.06O6.9,"{'Ba': 2.0, 'Cu': 2.94, 'O': 6.9, 'Y': 1.0, 'Zn': 0.06}",80.0,73.55,6.45,2,Y1 Ba2 Cu2.94 Zn0.06 O6.9
5415,[4316],Y1Ba2Cu2.94Ti0.06O6.91,Y1Ba2Cu2.94Ti0.06O6.91,"{'Ba': 2.0, 'Cu': 2.94, 'O': 6.91, 'Ti': 0.06, 'Y': 1.0}",77.0,77.0,0.0,1,Y1 Ba2 Cu2.94 Ti0.06 O6.91
5416,[9759],Y1Ba2Cu2.94Zn0.06O6.93,Y1Ba2Cu2.94Zn0.06O6.93,"{'Ba': 2.0, 'Cu': 2.94, 'O': 6.93, 'Y': 1.0, 'Zn': 0.06}",75.0,75.0,0.0,1,Y1 Ba2 Cu2.94 Zn0.06 O6.93
5417,[7976],Y1Ba2Cu2.94Zn0.06O6.95,Y1Ba2Cu2.94Zn0.06O6.95,"{'Ba': 2.0, 'Cu': 2.94, 'O': 6.95, 'Y': 1.0, 'Zn': 0.06}",65.0,65.0,0.0,1,Y1 Ba2 Cu2.94 Zn0.06 O6.95
5418,[11154],Y1Ba2Cu2.94Zn0.06O6.96,Y1Ba2Cu2.94Zn0.06O6.96,"{'Ba': 2.0, 'Cu': 2.94, 'O': 6.96, 'Y': 1.0, 'Zn': 0.06}",71.0,71.0,0.0,1,Y1 Ba2 Cu2.94 Zn0.06 O6.96
5419,[1370],Y1Ba2Cu2.94Zn0.06O6.97,Y1Ba2Cu2.94Zn0.06O6.97,"{'Ba': 2.0, 'Cu': 2.94, 'O': 6.97, 'Y': 1.0, 'Zn': 0.06}",67.6,67.6,0.0,1,Y1 Ba2 Cu2.94 Zn0.06 O6.97
5420,[20038],Y1Ba2Cu2.94P0.06O7-z,Y1Ba2Cu2.94P0.06O7,"{'Ba': 2.0, 'Cu': 2.94, 'O': 7.0, 'P': 0.06, 'Y': 1.0}",88.259,88.259,0.0,1,Y1 Ba2 Cu2.94 P0.06 O7
5421,[8460],Sm1Ba2Cu2.94Zn0.06O7-y,Sm1Ba2Cu2.94Zn0.06O7,"{'Ba': 2.0, 'Cu': 2.94, 'O': 7.0, 'Sm': 1.0, 'Zn': 0.06}",65.6,65.6,0.0,1,Sm1 Ba2 Cu2.94 Zn0.06 O7
5422,"[854, 1625, 1834, 3776, 5507, 8096, 8213, 8428]",Y1Ba2Cu2.94Zn0.06O7,Y1Ba2Cu2.94Zn0.06O7,"{'Ba': 2.0, 'Cu': 2.94, 'O': 7.0, 'Y': 1.0, 'Zn': 0.06}",73.0,67.03,4.2263222783,8,Y1 Ba2 Cu2.94 Zn0.06 O7
5423,[8414],Yb1Ba2Cu2.94Zn0.06O7-y,Yb1Ba2Cu2.94Zn0.06O7,"{'Ba': 2.0, 'Cu': 2.94, 'O': 7.0, 'Yb': 1.0, 'Zn': 0.06}",72.1,72.1,0.0,1,Yb1 Ba2 Cu2.94 Zn0.06 O7
5424,[10144],Yb1Ba2Cu2.943Zn0.057O6.9,Yb1Ba2Cu2.943Zn0.057O6.9,"{'Ba': 2.0, 'Cu': 2.943, 'O': 6.9, 'Yb': 1.0, 'Zn': 0.057}",64.3,64.3,0.0,1,Yb1 Ba2 Cu2.943 Zn0.057 O6.9
5425,[3466],Y1Ba2Cu2.948Zn0.052O7-z,Y1Ba2Cu2.948Zn0.052O7,"{'Ba': 2.0, 'Cu': 2.948, 'O': 7.0, 'Y': 1.0, 'Zn': 0.052000000000000005}",73.0,73.0,0.0,1,Y1 Ba2 Cu2.948 Zn0.052 O7
5426,"[744, 769]",Y1Ba2Cu2.949Fe0.051O7-Z,Y1Ba2Cu2.949Fe0.051O7,"{'Ba': 2.0, 'Cu': 2.949, 'Fe': 0.051000000000000004, 'O': 7.0, 'Y': 1.0}",78.0,78.0,0.0,2,Y1 Ba2 Cu2.949 Fe0.051 O7
5427,[802],Y1Ba2Cu2.949Zn0.051O7-Y,Y1Ba2Cu2.949Zn0.051O7,"{'Ba': 2.0, 'Cu': 2.949, 'O': 7.0, 'Y': 1.0, 'Zn': 0.051000000000000004}",62.7,62.7,0.0,1,Y1 Ba2 Cu2.949 Zn0.051 O7
5428,[7734],Dy1Ba2Cu2.95Ga0.05O6.69,Dy1Ba2Cu2.95Ga0.05O6.69,"{'Ba': 2.0, 'Cu': 2.95, 'Dy': 1.0, 'Ga': 0.05, 'O': 6.69}",83.0,83.0,0.0,1,Dy1 Ba2 Cu2.95 Ga0.05 O6.69
5429,[7722],Er1Ba2Cu2.95Ga0.05O6.75,Er1Ba2Cu2.95Ga0.05O6.75,"{'Ba': 2.0, 'Cu': 2.95, 'Er': 1.0, 'Ga': 0.05, 'O': 6.75}",90.0,90.0,0.0,1,Er1 Ba2 Cu2.95 Ga0.05 O6.75
5430,[7742],Eu1Ba2Cu2.95Ga0.05O6.78,Eu1Ba2Cu2.95Ga0.05O6.78,"{'Ba': 2.0, 'Cu': 2.95, 'Eu': 1.0, 'Ga': 0.05, 'O': 6.78}",79.0,79.0,0.0,1,Eu1 Ba2 Cu2.95 Ga0.05 O6.78
5431,[2034],Y1Ba2Cu2.95Fe0.05O6.55,Y1Ba2Cu2.95Fe0.05O6.55,"{'Ba': 2.0, 'Cu': 2.95, 'Fe': 0.05, 'O': 6.55, 'Y': 1.0}",17.8,17.8,0.0,1,Y1 Ba2 Cu2.95 Fe0.05 O6.55
5432,[2035],Y1Ba2Cu2.95Fe0.05O6.6,Y1Ba2Cu2.95Fe0.05O6.6,"{'Ba': 2.0, 'Cu': 2.95, 'Fe': 0.05, 'O': 6.6, 'Y': 1.0}",26.2,26.2,0.0,1,Y1 Ba2 Cu2.95 Fe0.05 O6.6
5433,[2036],Y1Ba2Cu2.95Fe0.05O6.64,Y1Ba2Cu2.95Fe0.05O6.64,"{'Ba': 2.0, 'Cu': 2.95, 'Fe': 0.05, 'O': 6.64, 'Y': 1.0}",37.4,37.4,0.0,1,Y1 Ba2 Cu2.95 Fe0.05 O6.64
5434,[2037],Y1Ba2Cu2.95Fe0.05O6.69,Y1Ba2Cu2.95Fe0.05O6.69,"{'Ba': 2.0, 'Cu': 2.95, 'Fe': 0.05, 'O': 6.69, 'Y': 1.0}",43.5,43.5,0.0,1,Y1 Ba2 Cu2.95 Fe0.05 O6.69
5435,[2038],Y1Ba2Cu2.95Fe0.05O6.73,Y1Ba2Cu2.95Fe0.05O6.73,"{'Ba': 2.0, 'Cu': 2.95, 'Fe': 0.05, 'O': 6.73, 'Y': 1.0}",52.7,52.7,0.0,1,Y1 Ba2 Cu2.95 Fe0.05 O6.73
5436,[2039],Y1Ba2Cu2.95Fe0.05O6.79,Y1Ba2Cu2.95Fe0.05O6.79,"{'Ba': 2.0, 'Cu': 2.95, 'Fe': 0.05, 'O': 6.79, 'Y': 1.0}",67.6,67.6,0.0,1,Y1 Ba2 Cu2.95 Fe0.05 O6.79
5437,[2040],Y1Ba2Cu2.95Fe0.05O6.84,Y1Ba2Cu2.95Fe0.05O6.84,"{'Ba': 2.0, 'Cu': 2.95, 'Fe': 0.05, 'O': 6.84, 'Y': 1.0}",76.4,76.4,0.0,1,Y1 Ba2 Cu2.95 Fe0.05 O6.84
5438,[2041],Y1Ba2Cu2.95Fe0.05O6.9,Y1Ba2Cu2.95Fe0.05O6.9,"{'Ba': 2.0, 'Cu': 2.95, 'Fe': 0.05, 'O': 6.9, 'Y': 1.0}",88.7,88.7,0.0,1,Y1 Ba2 Cu2.95 Fe0.05 O6.9
5439,[223],Y1Ba2Cu2.95Fe0.05O6.92,Y1Ba2Cu2.95Fe0.05O6.92,"{'Ba': 2.0, 'Cu': 2.95, 'Fe': 0.05, 'O': 6.92, 'Y': 1.0}",91.8,91.8,0.0,1,Y1 Ba2 Cu2.95 Fe0.05 O6.92
5440,[8028],Nb1Ba2Cu2.95Ga0.05O7-y,Nb1Ba2Cu2.95Ga0.05O7,"{'Ba': 2.0, 'Cu': 2.95, 'Ga': 0.05, 'Nb': 1.0, 'O': 7.0}",60.0,60.0,0.0,1,Nb1 Ba2 Cu2.95 Ga0.05 O7
5441,[7718],Nd1Ba2Cu2.95Ga0.05O6.59,Nd1Ba2Cu2.95Ga0.05O6.59,"{'Ba': 2.0, 'Cu': 2.95, 'Ga': 0.05, 'Nd': 1.0, 'O': 6.59}",53.0,53.0,0.0,1,Nd1 Ba2 Cu2.95 Ga0.05 O6.59
5442,[7728],Y1Ba2Cu2.95Ga0.05O6.69,Y1Ba2Cu2.95Ga0.05O6.69,"{'Ba': 2.0, 'Cu': 2.95, 'Ga': 0.05, 'O': 6.69, 'Y': 1.0}",88.0,88.0,0.0,1,Y1 Ba2 Cu2.95 Ga0.05 O6.69
5443,[7712],Yb1Ba2Cu2.95Ga0.05O7-y,Yb1Ba2Cu2.95Ga0.05O7,"{'Ba': 2.0, 'Cu': 2.95, 'Ga': 0.05, 'O': 7.0, 'Yb': 1.0}",90.0,90.0,0.0,1,Yb1 Ba2 Cu2.95 Ga0.05 O7
5444,[11214],Y1Ba2Cu2.95Gd0.05O7-z,Y1Ba2Cu2.95Gd0.05O7,"{'Ba': 2.0, 'Cu': 2.95, 'Gd': 0.05, 'O': 7.0, 'Y': 1.0}",44.8,44.8,0.0,1,Y1 Ba2 Cu2.95 Gd0.05 O7
5445,[9587],Y1Ba2Cu2.95Ni0.05O6.93,Y1Ba2Cu2.95Ni0.05O6.93,"{'Ba': 2.0, 'Cu': 2.95, 'Ni': 0.05, 'O': 6.93, 'Y': 1.0}",80.0,80.0,0.0,1,Y1 Ba2 Cu2.95 Ni0.05 O6.93
5446,[9583],Y1Ba2Cu2.95Ni0.05O6.94,Y1Ba2Cu2.95Ni0.05O6.94,"{'Ba': 2.0, 'Cu': 2.95, 'Ni': 0.05, 'O': 6.94, 'Y': 1.0}",85.0,85.0,0.0,1,Y1 Ba2 Cu2.95 Ni0.05 O6.94
5447,"[898, 2966]",Y1Ba2Cu2.95Ni0.05O7,Y1Ba2Cu2.95Ni0.05O7,"{'Ba': 2.0, 'Cu': 2.95, 'Ni': 0.05, 'O': 7.0, 'Y': 1.0}",90.6,87.65,2.95,2,Y1 Ba2 Cu2.95 Ni0.05 O7
5448,[9743],Y1Ba2Cu2.95Zn0.05O6.47,Y1Ba2Cu2.95Zn0.05O6.47,"{'Ba': 2.0, 'Cu': 2.95, 'O': 6.47, 'Y': 1.0, 'Zn': 0.05}",18.0,18.0,0.0,1,Y1 Ba2 Cu2.95 Zn0.05 O6.47
5449,[9744],Y1Ba2Cu2.95Zn0.05O6.52,Y1Ba2Cu2.95Zn0.05O6.52,"{'Ba': 2.0, 'Cu': 2.95, 'O': 6.52, 'Y': 1.0, 'Zn': 0.05}",23.0,23.0,0.0,1,Y1 Ba2 Cu2.95 Zn0.05 O6.52
5450,[9745],Y1Ba2Cu2.95Zn0.05O6.56,Y1Ba2Cu2.95Zn0.05O6.56,"{'Ba': 2.0, 'Cu': 2.95, 'O': 6.5600000000000005, 'Y': 1.0, 'Zn': 0.05}",24.0,24.0,0.0,1,Y1 Ba2 Cu2.95 Zn0.05 O6.56
5451,[9746],Y1Ba2Cu2.95Zn0.05O6.62,Y1Ba2Cu2.95Zn0.05O6.62,"{'Ba': 2.0, 'Cu': 2.95, 'O': 6.62, 'Y': 1.0, 'Zn': 0.05}",21.0,21.0,0.0,1,Y1 Ba2 Cu2.95 Zn0.05 O6.62
5452,[9747],Y1Ba2Cu2.95Zn0.05O6.63,Y1Ba2Cu2.95Zn0.05O6.63,"{'Ba': 2.0, 'Cu': 2.95, 'O': 6.63, 'Y': 1.0, 'Zn': 0.05}",25.0,25.0,0.0,1,Y1 Ba2 Cu2.95 Zn0.05 O6.63
5453,[9748],Y1Ba2Cu2.95Zn0.05O6.69,Y1Ba2Cu2.95Zn0.05O6.69,"{'Ba': 2.0, 'Cu': 2.95, 'O': 6.69, 'Y': 1.0, 'Zn': 0.05}",25.0,25.0,0.0,1,Y1 Ba2 Cu2.95 Zn0.05 O6.69
5454,[9749],Y1Ba2Cu2.95Zn0.05O6.7,Y1Ba2Cu2.95Zn0.05O6.7,"{'Ba': 2.0, 'Cu': 2.95, 'O': 6.7, 'Y': 1.0, 'Zn': 0.05}",25.0,25.0,0.0,1,Y1 Ba2 Cu2.95 Zn0.05 O6.7
5455,[9750],Y1Ba2Cu2.95Zn0.05O6.72,Y1Ba2Cu2.95Zn0.05O6.72,"{'Ba': 2.0, 'Cu': 2.95, 'O': 6.72, 'Y': 1.0, 'Zn': 0.05}",35.0,35.0,0.0,1,Y1 Ba2 Cu2.95 Zn0.05 O6.72
5456,[9751],Y1Ba2Cu2.95Zn0.05O6.75,Y1Ba2Cu2.95Zn0.05O6.75,"{'Ba': 2.0, 'Cu': 2.95, 'O': 6.75, 'Y': 1.0, 'Zn': 0.05}",48.0,48.0,0.0,1,Y1 Ba2 Cu2.95 Zn0.05 O6.75
5457,[9752],Y1Ba2Cu2.95Zn0.05O6.8,Y1Ba2Cu2.95Zn0.05O6.8,"{'Ba': 2.0, 'Cu': 2.95, 'O': 6.8, 'Y': 1.0, 'Zn': 0.05}",60.0,60.0,0.0,1,Y1 Ba2 Cu2.95 Zn0.05 O6.8
5458,[994],Y1Ba2Cu2.95Zn0.05O6.85,Y1Ba2Cu2.95Zn0.05O6.85,"{'Ba': 2.0, 'Cu': 2.95, 'O': 6.85, 'Y': 1.0, 'Zn': 0.05}",66.19,66.19,0.0,1,Y1 Ba2 Cu2.95 Zn0.05 O6.85
5459,[9957],Y1Re0.05Ba2Cu2.95O6.94,Y1Re0.05Ba2Cu2.95O6.94,"{'Ba': 2.0, 'Cu': 2.95, 'O': 6.94, 'Re': 0.05, 'Y': 1.0}",88.0,88.0,0.0,1,Y1 Re0.05 Ba2 Cu2.95 O6.94
5460,[984],Y1Ba2Cu2.95Zn0.05O6.94,Y1Ba2Cu2.95Zn0.05O6.94,"{'Ba': 2.0, 'Cu': 2.95, 'O': 6.94, 'Y': 1.0, 'Zn': 0.05}",73.9,73.9,0.0,1,Y1 Ba2 Cu2.95 Zn0.05 O6.94
5461,[9961],Y1Re0.05Ba2Cu2.95O7.02,Y1Re0.05Ba2Cu2.95O7.02,"{'Ba': 2.0, 'Cu': 2.95, 'O': 7.02, 'Re': 0.05, 'Y': 1.0}",92.0,92.0,0.0,1,Y1 Re0.05 Ba2 Cu2.95 O7.02
5462,[9965],Y1Re0.05Ba2Cu2.95O7.04,Y1Re0.05Ba2Cu2.95O7.04,"{'Ba': 2.0, 'Cu': 2.95, 'O': 7.04, 'Re': 0.05, 'Y': 1.0}",92.0,92.0,0.0,1,Y1 Re0.05 Ba2 Cu2.95 O7.04
5463,[5544],Y1Ba2Cu2.954Zn0.047O6+z,Y1Ba2Cu2.954Zn0.047O6,"{'Ba': 2.0, 'Cu': 2.954, 'O': 6.0, 'Y': 1.0, 'Zn': 0.047}",74.0,74.0,0.0,1,Y1 Ba2 Cu2.954 Zn0.047 O6
5464,[7642],Y1Ba2Cu2.954Zn0.047O7-d,Y1Ba2Cu2.954Zn0.047O7,"{'Ba': 2.0, 'Cu': 2.954, 'O': 7.0, 'Y': 1.0, 'Zn': 0.047}",73.8,73.8,0.0,1,Y1 Ba2 Cu2.954 Zn0.047 O7
5465,[453],Y1Ba2Cu2.955Fe0.045O6.89,Y1Ba2Cu2.955Fe0.045O6.89,"{'Ba': 2.0, 'Cu': 2.955, 'Fe': 0.045, 'O': 6.89, 'Y': 1.0}",72.0,72.0,0.0,1,Y1 Ba2 Cu2.955 Fe0.045 O6.89
5466,[1462],Y1Ba2Cu2.955Fe0.045O6.93,Y1Ba2Cu2.955Fe0.045O6.93,"{'Ba': 2.0, 'Cu': 2.955, 'Fe': 0.045, 'O': 6.93, 'Y': 1.0}",91.4,91.4,0.0,1,Y1 Ba2 Cu2.955 Fe0.045 O6.93