,sc_id,supercon_formula,cleaned_formula,material_dict,highest_Tc,average_Tc,std_Tc,entry_count,composition
3262,[2862],Ca1Ba1Eu1Cu3O7-Z,Ca1Ba1Eu1Cu3O7,"{'Ba': 1.0, 'Ca': 1.0, 'Cu': 3.0, 'Eu': 1.0, 'O': 7.0}",53.0,53.0,0.0,1,Ca1 Ba1 Eu1 Cu3 O7
3263,[2863],Ca1Ba1Gd1Cu3O7-Z,Ca1Ba1Gd1Cu3O7,"{'Ba': 1.0, 'Ca': 1.0, 'Cu': 3.0, 'Gd': 1.0, 'O': 7.0}",49.0,49.0,0.0,1,Ca1 Ba1 Gd1 Cu3 O7
3264,[2876],Ca1Ba1Ho1Cu3O7-Z,Ca1Ba1Ho1Cu3O7,"{'Ba': 1.0, 'Ca': 1.0, 'Cu': 3.0, 'Ho': 1.0, 'O': 7.0}",57.0,57.0,0.0,1,Ca1 Ba1 Ho1 Cu3 O7
3265,"[2873, 3258]",Ca1Ba1La0.2Nd0.8Cu3O7-Z,Ca1Ba1La0.2Nd0.8Cu3O7,"{'Ba': 1.0, 'Ca': 1.0, 'Cu': 3.0, 'La': 0.2, 'Nd': 0.8, 'O': 7.0}",57.0,57.0,0.0,2,Ca1 Ba1 La0.2 Nd0.8 Cu3 O7
3266,"[2867, 3252]",Ca1Ba1La0.2Sm0.8Cu3O7-Z,Ca1Ba1La0.2Sm0.8Cu3O7,"{'Ba': 1.0, 'Ca': 1.0, 'Cu': 3.0, 'La': 0.2, 'O': 7.0, 'Sm': 0.8}",56.0,56.0,0.0,2,Ca1 Ba1 La0.2 Sm0.8 Cu3 O7
3267,[6069],La0.25Sm0.75Ba1Ca1Cu3O7,La0.25Sm0.75Ba1Ca1Cu3O7,"{'Ba': 1.0, 'Ca': 1.0, 'Cu': 3.0, 'La': 0.25, 'O': 7.0, 'Sm': 0.75}",65.0,65.0,0.0,1,La0.25 Sm0.75 Ba1 Ca1 Cu3 O7
3268,"[2872, 3257]",Ca1Ba1La0.4Nd0.6Cu3O7-Z,Ca1Ba1La0.4Nd0.6Cu3O7,"{'Ba': 1.0, 'Ca': 1.0, 'Cu': 3.0, 'La': 0.4, 'Nd': 0.6000000000000001, 'O': 7.0}",63.0,63.0,0.0,2,Ca1 Ba1 La0.4 Nd0.6 Cu3 O7
3269,[6072],La0.4Pr0.4Ba1Ca1Cu3O7,La0.4Pr0.4Ba1Ca1Cu3O7,"{'Ba': 1.0, 'Ca': 1.0, 'Cu': 3.0, 'La': 0.4, 'O': 7.0, 'Pr': 0.4}",14.0,14.0,0.0,1,La0.4 Pr0.4 Ba1 Ca1 Cu3 O7
3270,"[2866, 3251]",Ca1Ba1La0.4Sm0.6Cu3O7-Z,Ca1Ba1La0.4Sm0.6Cu3O7,"{'Ba': 1.0, 'Ca': 1.0, 'Cu': 3.0, 'La': 0.4, 'O': 7.0, 'Sm': 0.6000000000000001}",64.0,64.0,0.0,2,Ca1 Ba1 La0.4 Sm0.6 Cu3 O7
3271,[6068],La0.5Sm0.5Ba1Ca1Cu3O7,La0.5Sm0.5Ba1Ca1Cu3O7,"{'Ba': 1.0, 'Ca': 1.0, 'Cu': 3.0, 'La': 0.5, 'O': 7.0, 'Sm': 0.5}",66.0,66.0,0.0,1,La0.5 Sm0.5 Ba1 Ca1 Cu3 O7
3272,"[2871, 3256]",Ca1Ba1La0.6Nd0.4Cu3O7-Z,Ca1Ba1La0.6Nd0.4Cu3O7,"{'Ba': 1.0, 'Ca': 1.0, 'Cu': 3.0, 'La': 0.6000000000000001, 'Nd': 0.4, 'O': 7.0}",67.0,67.0,0.0,2,Ca1 Ba1 La0.6 Nd0.4 Cu3 O7
3273,[6071],La0.6Pr0.6Ba1Ca1Cu3O7,La0.6Pr0.6Ba1Ca1Cu3O7,"{'Ba': 1.0, 'Ca': 1.0, 'Cu': 3.0, 'La': 0.6000000000000001, 'O': 7.0, 'Pr': 0.6000000000000001}",28.0,28.0,0.0,1,La0.6 Pr0.6 Ba1 Ca1 Cu3 O7
3274,"[2865, 3250]",Ca1Ba1La0.6Sm0.4Cu3O7-Z,Ca1Ba1La0.6Sm0.4Cu3O7,"{'Ba': 1.0, 'Ca': 1.0, 'Cu': 3.0, 'La': 0.6000000000000001, 'O': 7.0, 'Sm': 0.4}",68.0,68.0,0.0,2,Ca1 Ba1 La0.6 Sm0.4 Cu3 O7
3275,[5802],La0.7Pr0.3Ca1Ba1Cu3O7,La0.7Pr0.3Ca1Ba1Cu3O7,"{'Ba': 1.0, 'Ca': 1.0, 'Cu': 3.0, 'La': 0.7000000000000001, 'O': 7.0, 'Pr': 0.30000000000000004}",40.0,40.0,0.0,1,La0.7 Pr0.3 Ca1 Ba1 Cu3 O7
3276,[6065],La0.75Nd0.25Ba1Ca1Cu3O7,La0.75Nd0.25Ba1Ca1Cu3O7,"{'Ba': 1.0, 'Ca': 1.0, 'Cu': 3.0, 'La': 0.75, 'Nd': 0.25, 'O': 7.0}",55.0,55.0,0.0,1,La0.75 Nd0.25 Ba1 Ca1 Cu3 O7
3277,[6067],La0.75Sm0.25Ba1Ca1Cu3O7,La0.75Sm0.25Ba1Ca1Cu3O7,"{'Ba': 1.0, 'Ca': 1.0, 'Cu': 3.0, 'La': 0.75, 'O': 7.0, 'Sm': 0.25}",71.0,71.0,0.0,1,La0.75 Sm0.25 Ba1 Ca1 Cu3 O7
3278,"[2870, 3255]",Ca1Ba1La0.8Nd0.2Cu3O7-Z,Ca1Ba1La0.8Nd0.2Cu3O7,"{'Ba': 1.0, 'Ca': 1.0, 'Cu': 3.0, 'La': 0.8, 'Nd': 0.2, 'O': 7.0}",71.0,71.0,0.0,2,Ca1 Ba1 La0.8 Nd0.2 Cu3 O7
3279,[6070],La0.8Pr0.2Ba1Ca1Cu3O7,La0.8Pr0.2Ba1Ca1Cu3O7,"{'Ba': 1.0, 'Ca': 1.0, 'Cu': 3.0, 'La': 0.8, 'O': 7.0, 'Pr': 0.2}",52.0,52.0,0.0,1,La0.8 Pr0.2 Ba1 Ca1 Cu3 O7
3280,"[2864, 3249]",Ca1Ba1La0.8Sm0.2Cu3O7-Z,Ca1Ba1La0.8Sm0.2Cu3O7,"{'Ba': 1.0, 'Ca': 1.0, 'Cu': 3.0, 'La': 0.8, 'O': 7.0, 'Sm': 0.2}",71.0,71.0,0.0,2,Ca1 Ba1 La0.8 Sm0.2 Cu3 O7
3281,[3341],Ca1Ba1La1Cu3O6.85,Ca1Ba1La1Cu3O6.85,"{'Ba': 1.0, 'Ca': 1.0, 'Cu': 3.0, 'La': 1.0, 'O': 6.85}",76.0,76.0,0.0,1,Ca1 Ba1 La1 Cu3 O6.85
3282,[2332],La1Ba1Ca1Cu3O6.856,La1Ba1Ca1Cu3O6.856,"{'Ba': 1.0, 'Ca': 1.0, 'Cu': 3.0, 'La': 1.0, 'O': 6.856}",66.0,66.0,0.0,1,La1 Ba1 Ca1 Cu3 O6.856
3283,[4649],Ca1Ba1La1Cu3O6.97,Ca1Ba1La1Cu3O6.97,"{'Ba': 1.0, 'Ca': 1.0, 'Cu': 3.0, 'La': 1.0, 'O': 6.97}",64.0,64.0,0.0,1,Ca1 Ba1 La1 Cu3 O6.97
3284,[554],La1Ba1Ca1Cu3O6.98,La1Ba1Ca1Cu3O6.98,"{'Ba': 1.0, 'Ca': 1.0, 'Cu': 3.0, 'La': 1.0, 'O': 6.98}",76.35,76.35,0.0,1,La1 Ba1 Ca1 Cu3 O6.98
3285,[6635],La1Ba1Ca1Cu3O6.99,La1Ba1Ca1Cu3O6.99,"{'Ba': 1.0, 'Ca': 1.0, 'Cu': 3.0, 'La': 1.0, 'O': 6.99}",75.0,75.0,0.0,1,La1 Ba1 Ca1 Cu3 O6.99
3286,"[2771, 2869, 3254, 5529, 5548, 5553, 5801, 6064, 6276]",Ca1La1Ba1Cu3O7,Ca1La1Ba1Cu3O7,"{'Ba': 1.0, 'Ca': 1.0, 'Cu': 3.0, 'La': 1.0, 'O': 7.0}",80.0,67.8888888889,8.4910991887,9,Ca1 La1 Ba1 Cu3 O7
3287,[6481],Nd0.65Pr0.35Ba1Ca1Cu3O7,Nd0.65Pr0.35Ba1Ca1Cu3O7,"{'Ba': 1.0, 'Ca': 1.0, 'Cu': 3.0, 'Nd': 0.65, 'O': 7.0, 'Pr': 0.35000000000000003}",10.0,10.0,0.0,1,Nd0.65 Pr0.35 Ba1 Ca1 Cu3 O7
3288,[6480],Nd0.75Pr0.25Ba1Ca1Cu3O7,Nd0.75Pr0.25Ba1Ca1Cu3O7,"{'Ba': 1.0, 'Ca': 1.0, 'Cu': 3.0, 'Nd': 0.75, 'O': 7.0, 'Pr': 0.25}",26.0,26.0,0.0,1,Nd0.75 Pr0.25 Ba1 Ca1 Cu3 O7
3289,[6479],Nd0.9Pr0.1Ba1Ca1Cu3O7,Nd0.9Pr0.1Ba1Ca1Cu3O7,"{'Ba': 1.0, 'Ca': 1.0, 'Cu': 3.0, 'Nd': 0.9, 'O': 7.0, 'Pr': 0.1}",35.0,35.0,0.0,1,Nd0.9 Pr0.1 Ba1 Ca1 Cu3 O7
3290,"[2874, 3259, 4524, 6066, 6478]",Ca1Ba1Nd1Cu3O7-Z,Ca1Ba1Nd1Cu3O7,"{'Ba': 1.0, 'Ca': 1.0, 'Cu': 3.0, 'Nd': 1.0, 'O': 7.0}",59.0,44.2,8.9755222689,5,Ca1 Ba1 Nd1 Cu3 O7
3291,"[2868, 3253]",Ca1Ba1Sm1Cu3O7-Z,Ca1Ba1Sm1Cu3O7,"{'Ba': 1.0, 'Ca': 1.0, 'Cu': 3.0, 'O': 7.0, 'Sm': 1.0}",39.0,39.0,0.0,2,Ca1 Ba1 Sm1 Cu3 O7
3292,[2878],Ca1Ba1Tm1Cu3O7-Z,Ca1Ba1Tm1Cu3O7,"{'Ba': 1.0, 'Ca': 1.0, 'Cu': 3.0, 'O': 7.0, 'Tm': 1.0}",67.0,67.0,0.0,1,Ca1 Ba1 Tm1 Cu3 O7
3293,[4135],Hg0.75Sr1Ba1Ca2Cu3O8+z,Hg0.75Sr1Ba1Ca2Cu3O8,"{'Ba': 1.0, 'Ca': 2.0, 'Cu': 3.0, 'Hg': 0.75, 'O': 8.0, 'Sr': 1.0}",122.0,122.0,0.0,1,Hg0.75 Sr1 Ba1 Ca2 Cu3 O8
3294,"[4359, 4576]",Tl1Ba1Sr1Ca2Cu3O9,Tl1Ba1Sr1Ca2Cu3O9,"{'Ba': 1.0, 'Ca': 2.0, 'Cu': 3.0, 'O': 9.0, 'Sr': 1.0, 'Tl': 1.0}",105.0,101.0,4.0,2,Tl1 Ba1 Sr1 Ca2 Cu3 O9
3295,[2614],Cd1Tl0.7Ba1Cu1O4.5,Cd1Tl0.7Ba1Cu1O4.5,"{'Ba': 1.0, 'Cd': 1.0, 'Cu': 1.0, 'O': 4.5, 'Tl': 0.7000000000000001}",52.5,52.5,0.0,1,Cd1 Tl0.7 Ba1 Cu1 O4.5
3296,[6294],La1Ba1Cu2.94Co0.06O7,La1Ba1Cu2.94Co0.06O7,"{'Ba': 1.0, 'Co': 0.06, 'Cu': 2.94, 'La': 1.0, 'O': 7.0}",57.0,57.0,0.0,1,La1 Ba1 Cu2.94 Co0.06 O7
3297,[6295],La1Ba1Cu2.88Co0.12O7,La1Ba1Cu2.88Co0.12O7,"{'Ba': 1.0, 'Co': 0.12, 'Cu': 2.88, 'La': 1.0, 'O': 7.0}",40.0,40.0,0.0,1,La1 Ba1 Cu2.88 Co0.12 O7
3298,[6296],La1Ba1Cu2.82Co0.18O7,La1Ba1Cu2.82Co0.18O7,"{'Ba': 1.0, 'Co': 0.18, 'Cu': 2.8200000000000003, 'La': 1.0, 'O': 7.0}",14.0,14.0,0.0,1,La1 Ba1 Cu2.82 Co0.18 O7
3299,[2777],Y1Sr1Ba1Cu2.7Co0.3O6+Z,Y1Sr1Ba1Cu2.7Co0.3O6,"{'Ba': 1.0, 'Co': 0.30000000000000004, 'Cu': 2.7, 'O': 6.0, 'Sr': 1.0, 'Y': 1.0}",22.0,22.0,0.0,1,Y1 Sr1 Ba1 Cu2.7 Co0.3 O6
3300,[24504],Ba1Cu0.2Si1.8,Ba1Cu0.2Si1.8,"{'Ba': 1.0, 'Cu': 0.2, 'Si': 1.8}",3.02,3.02,0.0,1,Ba1 Cu0.2 Si1.8
3301,[24500],Ba1Cu0.3Si1.7,Ba1Cu0.3Si1.7,"{'Ba': 1.0, 'Cu': 0.30000000000000004, 'Si': 1.7000000000000002}",3.0,3.0,0.0,1,Ba1 Cu0.3 Si1.7
3302,[24507],Ba1Cu0.4Si1.6,Ba1Cu0.4Si1.6,"{'Ba': 1.0, 'Cu': 0.4, 'Si': 1.6}",2.11,2.11,0.0,1,Ba1 Cu0.4 Si1.6
3303,[24510],Ba1Cu0.5Si1.5,Ba1Cu0.5Si1.5,"{'Ba': 1.0, 'Cu': 0.5, 'Si': 1.5}",2.5300000000000002,2.5300000000000002,0.0,1,Ba1 Cu0.5 Si1.5
3304,[24512],Ba1Cu0.6Si1.4,Ba1Cu0.6Si1.4,"{'Ba': 1.0, 'Cu': 0.6000000000000001, 'Si': 1.4}",1.74,1.74,0.0,1,Ba1 Cu0.6 Si1.4
3305,[4139],Sr2BaCu1F2O2,Sr2BaCu1F2O2,"{'Ba': 1.0, 'Cu': 1.0, 'F': 2.0, 'O': 2.0, 'Sr': 2.0}",46.0,46.0,0.0,1,Sr2 Ba1 Cu1 F2 O2
3306,"[5517, 5522]",Hg0.7V0.3Ba1Sr1Cu1O4.6+z,Hg0.7V0.3Ba1Sr1Cu1O4.6,"{'Ba': 1.0, 'Cu': 1.0, 'Hg': 0.7000000000000001, 'O': 4.6, 'Sr': 1.0, 'V': 0.30000000000000004}",65.0,55.0,10.0,2,Hg0.7 V0.3 Ba1 Sr1 Cu1 O4.6
3307,[2615],Hg0.76Tl0.76Ba1Cu1O4.5,Hg0.76Tl0.76Ba1Cu1O4.5,"{'Ba': 1.0, 'Cu': 1.0, 'Hg': 0.76, 'O': 4.5, 'Tl': 0.76}",87.5,87.5,0.0,1,Hg0.76 Tl0.76 Ba1 Cu1 O4.5
3308,[7],Ba1La1Cu1O4-Y,Ba1La1Cu1O4,"{'Ba': 1.0, 'Cu': 1.0, 'La': 1.0, 'O': 4.0}",11.0,11.0,0.0,1,Ba1 La1 Cu1 O4
3309,[2612],Tl0.76Ba1Cu1O4.5,Tl0.76Ba1Cu1O4.5,"{'Ba': 1.0, 'Cu': 1.0, 'O': 4.5, 'Tl': 0.76}",86.0,86.0,0.0,1,Tl0.76 Ba1 Cu1 O4.5
3310,[2613],Zn1Tl0.78Ba1Cu1O4.5,Zn1Tl0.78Ba1Cu1O4.5,"{'Ba': 1.0, 'Cu': 1.0, 'O': 4.5, 'Tl': 0.78, 'Zn': 1.0}",81.0,81.0,0.0,1,Zn1 Tl0.78 Ba1 Cu1 O4.5
3311,"[2090, 2091]",Tl1Ba1Sr1Cu1O5,Tl1Ba1Sr1Cu1O5,"{'Ba': 1.0, 'Cu': 1.0, 'O': 5.0, 'Sr': 1.0, 'Tl': 1.0}",56.5,49.0,7.5,2,Tl1 Ba1 Sr1 Cu1 O5
3312,"[10983, 11100]",Hg2Ba1Sr1Y1Cu2O8-z,Hg2Ba1Sr1Y1Cu2O8,"{'Ba': 1.0, 'Cu': 2.0, 'Hg': 2.0, 'O': 8.0, 'Sr': 1.0, 'Y': 1.0}",32.0,32.0,0.0,2,Hg2 Ba1 Sr1 Y1 Cu2 O8
3313,[8370],Fe0.5Ba1Sr1Dy1Cu2.5O7.447,Fe0.5Ba1Sr1Dy1Cu2.5O7.447,"{'Ba': 1.0, 'Cu': 2.5, 'Dy': 1.0, 'Fe': 0.5, 'O': 7.447, 'Sr': 1.0}",37.9,37.9,0.0,1,Fe0.5 Ba1 Sr1 Dy1 Cu2.5 O7.447
3314,[8367],Fe0.5Ba1Sr1Er1Cu2.5O7.439,Fe0.5Ba1Sr1Er1Cu2.5O7.439,"{'Ba': 1.0, 'Cu': 2.5, 'Er': 1.0, 'Fe': 0.5, 'O': 7.439, 'Sr': 1.0}",47.8,47.8,0.0,1,Fe0.5 Ba1 Sr1 Er1 Cu2.5 O7.439
3315,[8369],Fe0.5Ba1Sr1Ho1Cu2.5O7.462,Fe0.5Ba1Sr1Ho1Cu2.5O7.462,"{'Ba': 1.0, 'Cu': 2.5, 'Fe': 0.5, 'Ho': 1.0, 'O': 7.462, 'Sr': 1.0}",45.2,45.2,0.0,1,Fe0.5 Ba1 Sr1 Ho1 Cu2.5 O7.462
3316,[10343],Fe0.5Sr1Ba1Y1Cu2.5O7,Fe0.5Sr1Ba1Y1Cu2.5O7,"{'Ba': 1.0, 'Cu': 2.5, 'Fe': 0.5, 'O': 7.0, 'Sr': 1.0, 'Y': 1.0}",58.5,58.5,0.0,1,Fe0.5 Sr1 Ba1 Y1 Cu2.5 O7
3317,[10967],Fe0.5Ba1Sr1Y1Cu2.5O7.35,Fe0.5Ba1Sr1Y1Cu2.5O7.35,"{'Ba': 1.0, 'Cu': 2.5, 'Fe': 0.5, 'O': 7.35, 'Sr': 1.0, 'Y': 1.0}",60.0,60.0,0.0,1,Fe0.5 Ba1 Sr1 Y1 Cu2.5 O7.35
3318,[8368],Fe0.5Ba1Sr1Y1Cu2.5O7.424,Fe0.5Ba1Sr1Y1Cu2.5O7.424,"{'Ba': 1.0, 'Cu': 2.5, 'Fe': 0.5, 'O': 7.424, 'Sr': 1.0, 'Y': 1.0}",52.5,52.5,0.0,1,Fe0.5 Ba1 Sr1 Y1 Cu2.5 O7.424
3319,[8366],Fe0.5Ba1Sr1Tm1Cu2.5O7.432,Fe0.5Ba1Sr1Tm1Cu2.5O7.432,"{'Ba': 1.0, 'Cu': 2.5, 'Fe': 0.5, 'O': 7.432, 'Sr': 1.0, 'Tm': 1.0}",40.0,40.0,0.0,1,Fe0.5 Ba1 Sr1 Tm1 Cu2.5 O7.432
3320,[8365],Fe0.5Ba1Sr1Yb1Cu2.5O7.432,Fe0.5Ba1Sr1Yb1Cu2.5O7.432,"{'Ba': 1.0, 'Cu': 2.5, 'Fe': 0.5, 'O': 7.432, 'Sr': 1.0, 'Yb': 1.0}",29.7,29.7,0.0,1,Fe0.5 Ba1 Sr1 Yb1 Cu2.5 O7.432
3321,[10964],Fe0.3Ba1Sr1Y1Cu2.7O7+z,Fe0.3Ba1Sr1Y1Cu2.7O7,"{'Ba': 1.0, 'Cu': 2.7, 'Fe': 0.30000000000000004, 'O': 7.0, 'Sr': 1.0, 'Y': 1.0}",7.8,7.8,0.0,1,Fe0.3 Ba1 Sr1 Y1 Cu2.7 O7
3322,[5091],Y1Ba1Sr1Cu2.75Sn0.25O7.16,Y1Ba1Sr1Cu2.75Sn0.25O7.16,"{'Ba': 1.0, 'Cu': 2.75, 'O': 7.16, 'Sn': 0.25, 'Sr': 1.0, 'Y': 1.0}",40.9,40.9,0.0,1,Y1 Ba1 Sr1 Cu2.75 Sn0.25 O7.16
3323,[4386],Y1Ba1Sr1Cu2.75Sn0.25O7.163,Y1Ba1Sr1Cu2.75Sn0.25O7.163,"{'Ba': 1.0, 'Cu': 2.75, 'O': 7.163, 'Sn': 0.25, 'Sr': 1.0, 'Y': 1.0}",40.9,40.9,0.0,1,Y1 Ba1 Sr1 Cu2.75 Sn0.25 O7.163
3324,[6019],Y0.84Sr1.16Ba1Cu2.78S0.22O7,Y0.84Sr1.16Ba1Cu2.78S0.22O7,"{'Ba': 1.0, 'Cu': 2.7800000000000002, 'O': 7.0, 'S': 0.22, 'Sr': 1.16, 'Y': 0.84}",78.1,78.1,0.0,1,Y0.84 Sr1.16 Ba1 Cu2.78 S0.22 O7
3325,[10963],Fe0.2Ba1Sr1Y1Cu2.8O7+z,Fe0.2Ba1Sr1Y1Cu2.8O7,"{'Ba': 1.0, 'Cu': 2.8, 'Fe': 0.2, 'O': 7.0, 'Sr': 1.0, 'Y': 1.0}",36.1,36.1,0.0,1,Fe0.2 Ba1 Sr1 Y1 Cu2.8 O7
3326,[7165],Y1Ba1Sr1Cu2.8Mo0.2O7.3,Y1Ba1Sr1Cu2.8Mo0.2O7.3,"{'Ba': 1.0, 'Cu': 2.8, 'Mo': 0.2, 'O': 7.3, 'Sr': 1.0, 'Y': 1.0}",68.0,68.0,0.0,1,Y1 Ba1 Sr1 Cu2.8 Mo0.2 O7.3
3327,[6024],Y1Ba1Sr1Cu2.8P0.2O4+z,Y1Ba1Sr1Cu2.8P0.2O4,"{'Ba': 1.0, 'Cu': 2.8, 'O': 4.0, 'P': 0.2, 'Sr': 1.0, 'Y': 1.0}",47.0,47.0,0.0,1,Y1 Ba1 Sr1 Cu2.8 P0.2 O4
3328,[5090],Y1Ba1Sr1Cu2.8Sn0.2O7.12,Y1Ba1Sr1Cu2.8Sn0.2O7.12,"{'Ba': 1.0, 'Cu': 2.8, 'O': 7.12, 'Sn': 0.2, 'Sr': 1.0, 'Y': 1.0}",49.8,49.8,0.0,1,Y1 Ba1 Sr1 Cu2.8 Sn0.2 O7.12
3329,[4385],Y1Ba1Sr1Cu2.8Sn0.2O7.122,Y1Ba1Sr1Cu2.8Sn0.2O7.122,"{'Ba': 1.0, 'Cu': 2.8, 'O': 7.122, 'Sn': 0.2, 'Sr': 1.0, 'Y': 1.0}",49.3,49.3,0.0,1,Y1 Ba1 Sr1 Cu2.8 Sn0.2 O7.122
3330,[5089],Y1Ba1Sr1Cu2.85Sn0.15O7.06,Y1Ba1Sr1Cu2.85Sn0.15O7.06,"{'Ba': 1.0, 'Cu': 2.85, 'O': 7.06, 'Sn': 0.15, 'Sr': 1.0, 'Y': 1.0}",63.8,63.8,0.0,1,Y1 Ba1 Sr1 Cu2.85 Sn0.15 O7.06
3331,[4384],Y1Ba1Sr1Cu2.85Sn0.15O7.062,Y1Ba1Sr1Cu2.85Sn0.15O7.062,"{'Ba': 1.0, 'Cu': 2.85, 'O': 7.062, 'Sn': 0.15, 'Sr': 1.0, 'Y': 1.0}",63.7,63.7,0.0,1,Y1 Ba1 Sr1 Cu2.85 Sn0.15 O7.062
3332,[10962],Fe0.1Ba1Sr1Y1Cu2.9O7+z,Fe0.1Ba1Sr1Y1Cu2.9O7,"{'Ba': 1.0, 'Cu': 2.9, 'Fe': 0.1, 'O': 7.0, 'Sr': 1.0, 'Y': 1.0}",46.6,46.6,0.0,1,Fe0.1 Ba1 Sr1 Y1 Cu2.9 O7
3333,[7164],Y1Ba1Sr1Cu2.9Mo0.1O7.16,Y1Ba1Sr1Cu2.9Mo0.1O7.16,"{'Ba': 1.0, 'Cu': 2.9, 'Mo': 0.1, 'O': 7.16, 'Sr': 1.0, 'Y': 1.0}",86.0,86.0,0.0,1,Y1 Ba1 Sr1 Cu2.9 Mo0.1 O7.16
3334,[5088],Y1Ba1Sr1Cu2.9Sn0.1O7,Y1Ba1Sr1Cu2.9Sn0.1O7,"{'Ba': 1.0, 'Cu': 2.9, 'O': 7.0, 'Sn': 0.1, 'Sr': 1.0, 'Y': 1.0}",69.1,69.1,0.0,1,Y1 Ba1 Sr1 Cu2.9 Sn0.1 O7
3335,[4383],Y1Ba1Sr1Cu2.9Sn0.1O7.001,Y1Ba1Sr1Cu2.9Sn0.1O7.001,"{'Ba': 1.0, 'Cu': 2.9, 'O': 7.001, 'Sn': 0.1, 'Sr': 1.0, 'Y': 1.0}",68.6,68.6,0.0,1,Y1 Ba1 Sr1 Cu2.9 Sn0.1 O7.001
3336,[7163],Y1Ba1Sr1Cu2.95Mo0.05O7.07,Y1Ba1Sr1Cu2.95Mo0.05O7.07,"{'Ba': 1.0, 'Cu': 2.95, 'Mo': 0.05, 'O': 7.07, 'Sr': 1.0, 'Y': 1.0}",85.0,85.0,0.0,1,Y1 Ba1 Sr1 Cu2.95 Mo0.05 O7.07
3337,"[4382, 5087]",Y1Ba1Sr1Cu2.95Sn0.05O6.96,Y1Ba1Sr1Cu2.95Sn0.05O6.96,"{'Ba': 1.0, 'Cu': 2.95, 'O': 6.96, 'Sn': 0.05, 'Sr': 1.0, 'Y': 1.0}",73.9,73.8,0.1,2,Y1 Ba1 Sr1 Cu2.95 Sn0.05 O6.96
3338,[4381],Y1Ba1Sr1Cu2.975Sn0.025O6.91,Y1Ba1Sr1Cu2.975Sn0.025O6.91,"{'Ba': 1.0, 'Cu': 2.975, 'O': 6.91, 'Sn': 0.025, 'Sr': 1.0, 'Y': 1.0}",76.3,76.3,0.0,1,Y1 Ba1 Sr1 Cu2.975 Sn0.025 O6.91
3339,[5086],Y1Ba1Sr1Cu2.975Sn0.025O6.92,Y1Ba1Sr1Cu2.975Sn0.025O6.92,"{'Ba': 1.0, 'Cu': 2.975, 'O': 6.92, 'Sn': 0.025, 'Sr': 1.0, 'Y': 1.0}",77.0,77.0,0.0,1,Y1 Ba1 Sr1 Cu2.975 Sn0.025 O6.92
3340,[3705],Dy1Ba1Sr1Cu3O6.6,Dy1Ba1Sr1Cu3O6.6,"{'Ba': 1.0, 'Cu': 3.0, 'Dy': 1.0, 'O': 6.6, 'Sr': 1.0}",14.85,14.85,0.0,1,Dy1 Ba1 Sr1 Cu3 O6.6
3341,[3704],Dy1Ba1Sr1Cu3O6.7,Dy1Ba1Sr1Cu3O6.7,"{'Ba': 1.0, 'Cu': 3.0, 'Dy': 1.0, 'O': 6.7, 'Sr': 1.0}",29.9,29.9,0.0,1,Dy1 Ba1 Sr1 Cu3 O6.7
3342,[3122],Dy1Ba1Sr1Cu3O6.89,Dy1Ba1Sr1Cu3O6.89,"{'Ba': 1.0, 'Cu': 3.0, 'Dy': 1.0, 'O': 6.89, 'Sr': 1.0}",79.5,79.5,0.0,1,Dy1 Ba1 Sr1 Cu3 O6.89
3343,[3703],Dy1Ba1Sr1Cu3O6.9,Dy1Ba1Sr1Cu3O6.9,"{'Ba': 1.0, 'Cu': 3.0, 'Dy': 1.0, 'O': 6.9, 'Sr': 1.0}",77.05,77.05,0.0,1,Dy1 Ba1 Sr1 Cu3 O6.9
3344,[2708],Dy1Ba1Sr1Cu3O6.93,Dy1Ba1Sr1Cu3O6.93,"{'Ba': 1.0, 'Cu': 3.0, 'Dy': 1.0, 'O': 6.93, 'Sr': 1.0}",83.0,83.0,0.0,1,Dy1 Ba1 Sr1 Cu3 O6.93
3345,"[2707, 3280]",Dy1Ba1Sr1Cu3O6.94,Dy1Ba1Sr1Cu3O6.94,"{'Ba': 1.0, 'Cu': 3.0, 'Dy': 1.0, 'O': 6.94, 'Sr': 1.0}",83.0,81.5,1.5,2,Dy1 Ba1 Sr1 Cu3 O6.94
3346,[10189],Dy1Ba1Sr1Cu3O7-z,Dy1Ba1Sr1Cu3O7,"{'Ba': 1.0, 'Cu': 3.0, 'Dy': 1.0, 'O': 7.0, 'Sr': 1.0}",82.0,82.0,0.0,1,Dy1 Ba1 Sr1 Cu3 O7
3347,[3283],Er1Ba1Sr1Cu3O6.94,Er1Ba1Sr1Cu3O6.94,"{'Ba': 1.0, 'Cu': 3.0, 'Er': 1.0, 'O': 6.94, 'Sr': 1.0}",78.0,78.0,0.0,1,Er1 Ba1 Sr1 Cu3 O6.94
3348,[3289],Eu1Ba1Sr1Cu3O6.94,Eu1Ba1Sr1Cu3O6.94,"{'Ba': 1.0, 'Cu': 3.0, 'Eu': 1.0, 'O': 6.94, 'Sr': 1.0}",80.0,80.0,0.0,1,Eu1 Ba1 Sr1 Cu3 O6.94
3349,[6252],Eu1Ba1Sr1Cu3O6.95,Eu1Ba1Sr1Cu3O6.95,"{'Ba': 1.0, 'Cu': 3.0, 'Eu': 1.0, 'O': 6.95, 'Sr': 1.0}",84.0,84.0,0.0,1,Eu1 Ba1 Sr1 Cu3 O6.95
3350,[9311],Gd1Ba1Sr1Cu3O6.77,Gd1Ba1Sr1Cu3O6.77,"{'Ba': 1.0, 'Cu': 3.0, 'Gd': 1.0, 'O': 6.77, 'Sr': 1.0}",4.0,4.0,0.0,1,Gd1 Ba1 Sr1 Cu3 O6.77
3351,[9312],Gd1Ba1Sr1Cu3O6.93,Gd1Ba1Sr1Cu3O6.93,"{'Ba': 1.0, 'Cu': 3.0, 'Gd': 1.0, 'O': 6.93, 'Sr': 1.0}",83.0,83.0,0.0,1,Gd1 Ba1 Sr1 Cu3 O6.93
3352,[21398],Gd1Ba1Sr1Cu3O6.9371,Gd1Ba1Sr1Cu3O6.9371,"{'Ba': 1.0, 'Cu': 3.0, 'Gd': 1.0, 'O': 6.9371, 'Sr': 1.0}",76.5,76.5,0.0,1,Gd1 Ba1 Sr1 Cu3 O6.9371
3353,[3290],Gd1Ba1Sr1Cu3O6.94,Gd1Ba1Sr1Cu3O6.94,"{'Ba': 1.0, 'Cu': 3.0, 'Gd': 1.0, 'O': 6.94, 'Sr': 1.0}",86.0,86.0,0.0,1,Gd1 Ba1 Sr1 Cu3 O6.94
3354,"[4208, 4209]",Gd1Ba1Sr1Cu3O7,Gd1Ba1Sr1Cu3O7,"{'Ba': 1.0, 'Cu': 3.0, 'Gd': 1.0, 'O': 7.0, 'Sr': 1.0}",85.0,83.5,1.5,2,Gd1 Ba1 Sr1 Cu3 O7
3355,[3282],Ho1Ba1Sr1Cu3O6.94,Ho1Ba1Sr1Cu3O6.94,"{'Ba': 1.0, 'Cu': 3.0, 'Ho': 1.0, 'O': 6.94, 'Sr': 1.0}",79.0,79.0,0.0,1,Ho1 Ba1 Sr1 Cu3 O6.94
3356,[3286],La1Ba1Sr1Cu3O6.94,La1Ba1Sr1Cu3O6.94,"{'Ba': 1.0, 'Cu': 3.0, 'La': 1.0, 'O': 6.94, 'Sr': 1.0}",57.0,57.0,0.0,1,La1 Ba1 Sr1 Cu3 O6.94
3357,[4822],La1Ba1Sr1Cu3O7.01,La1Ba1Sr1Cu3O7.01,"{'Ba': 1.0, 'Cu': 3.0, 'La': 1.0, 'O': 7.01, 'Sr': 1.0}",41.5,41.5,0.0,1,La1 Ba1 Sr1 Cu3 O7.01
3358,[4160],La1.5Ba1Sr0.5Cu3O6.955,La1.5Ba1Sr0.5Cu3O6.955,"{'Ba': 1.0, 'Cu': 3.0, 'La': 1.5, 'O': 6.955, 'Sr': 0.5}",26.9,26.9,0.0,1,La1.5 Ba1 Sr0.5 Cu3 O6.955
3359,[3285],Lu1Ba1Sr1Cu3O6.94,Lu1Ba1Sr1Cu3O6.94,"{'Ba': 1.0, 'Cu': 3.0, 'Lu': 1.0, 'O': 6.94, 'Sr': 1.0}",54.0,54.0,0.0,1,Lu1 Ba1 Sr1 Cu3 O6.94
3360,[9404],Nd0.7Pr0.3Ba1Sr1Cu3O6.87,Nd0.7Pr0.3Ba1Sr1Cu3O6.87,"{'Ba': 1.0, 'Cu': 3.0, 'Nd': 0.7000000000000001, 'O': 6.87, 'Pr': 0.30000000000000004, 'Sr': 1.0}",34.0,34.0,0.0,1,Nd0.7 Pr0.3 Ba1 Sr1 Cu3 O6.87
3361,[9407],Nd0.7Pr0.3Ba1Sr1Cu3O7-z,Nd0.7Pr0.3Ba1Sr1Cu3O7,"{'Ba': 1.0, 'Cu': 3.0, 'Nd': 0.7000000000000001, 'O': 7.0, 'Pr': 0.30000000000000004, 'Sr': 1.0}",44.0,44.0,0.0,1,Nd0.7 Pr0.3 Ba1 Sr1 Cu3 O7
3362,[4514],Nd1Ba1Sr1Cu3O6.92,Nd1Ba1Sr1Cu3O6.92,"{'Ba': 1.0, 'Cu': 3.0, 'Nd': 1.0, 'O': 6.92, 'Sr': 1.0}",64.0,64.0,0.0,1,Nd1 Ba1 Sr1 Cu3 O6.92
3363,[3287],Nd1Ba1Sr1Cu3O6.94,Nd1Ba1Sr1Cu3O6.94,"{'Ba': 1.0, 'Cu': 3.0, 'Nd': 1.0, 'O': 6.94, 'Sr': 1.0}",74.0,74.0,0.0,1,Nd1 Ba1 Sr1 Cu3 O6.94
3364,[11694],Nd1Ba1Sr1Cu3O7.02,Nd1Ba1Sr1Cu3O7.02,"{'Ba': 1.0, 'Cu': 3.0, 'Nd': 1.0, 'O': 7.02, 'Sr': 1.0}",49.9,49.9,0.0,1,Nd1 Ba1 Sr1 Cu3 O7.02
3365,[8999],Y1Ba1Sr1Cu3O6.685,Y1Ba1Sr1Cu3O6.685,"{'Ba': 1.0, 'Cu': 3.0, 'O': 6.6850000000000005, 'Sr': 1.0, 'Y': 1.0}",34.0,34.0,0.0,1,Y1 Ba1 Sr1 Cu3 O6.685
3366,"[1208, 8998]",Y1Ba1Sr1Cu3O6.8,Y1Ba1Sr1Cu3O6.8,"{'Ba': 1.0, 'Cu': 3.0, 'O': 6.8, 'Sr': 1.0, 'Y': 1.0}",83.5,67.5,16.0,2,Y1 Ba1 Sr1 Cu3 O6.8
3367,[6929],Y1Ba1Sr1Cu3O6.83,Y1Ba1Sr1Cu3O6.83,"{'Ba': 1.0, 'Cu': 3.0, 'O': 6.83, 'Sr': 1.0, 'Y': 1.0}",58.5,58.5,0.0,1,Y1 Ba1 Sr1 Cu3 O6.83
3368,[6930],Y1Ba1Sr1Cu3O6.88,Y1Ba1Sr1Cu3O6.88,"{'Ba': 1.0, 'Cu': 3.0, 'O': 6.88, 'Sr': 1.0, 'Y': 1.0}",75.6,75.6,0.0,1,Y1 Ba1 Sr1 Cu3 O6.88
3369,[7999],Y0.6Pr0.4Ba1Sr1Cu3O6.89,Y0.6Pr0.4Ba1Sr1Cu3O6.89,"{'Ba': 1.0, 'Cu': 3.0, 'O': 6.89, 'Pr': 0.4, 'Sr': 1.0, 'Y': 0.6000000000000001}",53.0,53.0,0.0,1,Y0.6 Pr0.4 Ba1 Sr1 Cu3 O6.89
3370,[4380],Y1Ba1Sr1Cu3O6.899,Y1Ba1Sr1Cu3O6.899,"{'Ba': 1.0, 'Cu': 3.0, 'O': 6.899, 'Sr': 1.0, 'Y': 1.0}",80.2,80.2,0.0,1,Y1 Ba1 Sr1 Cu3 O6.899
3371,[4473],Y0.8Pr0.2Ba1Sr1Cu3O6.9,Y0.8Pr0.2Ba1Sr1Cu3O6.9,"{'Ba': 1.0, 'Cu': 3.0, 'O': 6.9, 'Pr': 0.2, 'Sr': 1.0, 'Y': 0.8}",79.4,79.4,0.0,1,Y0.8 Pr0.2 Ba1 Sr1 Cu3 O6.9
3372,[4474],Y0.6Pr0.4Ba1Sr1Cu3O6.9,Y0.6Pr0.4Ba1Sr1Cu3O6.9,"{'Ba': 1.0, 'Cu': 3.0, 'O': 6.9, 'Pr': 0.4, 'Sr': 1.0, 'Y': 0.6000000000000001}",60.5,60.5,0.0,1,Y0.6 Pr0.4 Ba1 Sr1 Cu3 O6.9
3373,[4475],Y0.5Pr0.5Ba1Sr1Cu3O6.9,Y0.5Pr0.5Ba1Sr1Cu3O6.9,"{'Ba': 1.0, 'Cu': 3.0, 'O': 6.9, 'Pr': 0.5, 'Sr': 1.0, 'Y': 0.5}",36.0,36.0,0.0,1,Y0.5 Pr0.5 Ba1 Sr1 Cu3 O6.9
3374,[4477],Y0.35Pr0.65Ba1Sr1Cu3O6.9,Y0.35Pr0.65Ba1Sr1Cu3O6.9,"{'Ba': 1.0, 'Cu': 3.0, 'O': 6.9, 'Pr': 0.65, 'Sr': 1.0, 'Y': 0.35000000000000003}",20.3,20.3,0.0,1,Y0.35 Pr0.65 Ba1 Sr1 Cu3 O6.9
3375,[4472],Y1Ba1Sr1Cu3O6.9,Y1Ba1Sr1Cu3O6.9,"{'Ba': 1.0, 'Cu': 3.0, 'O': 6.9, 'Sr': 1.0, 'Y': 1.0}",92.0,92.0,0.0,1,Y1 Ba1 Sr1 Cu3 O6.9
3376,[5085],Y1Ba1Sr1Cu3O6.91,Y1Ba1Sr1Cu3O6.91,"{'Ba': 1.0, 'Cu': 3.0, 'O': 6.91, 'Sr': 1.0, 'Y': 1.0}",81.0,81.0,0.0,1,Y1 Ba1 Sr1 Cu3 O6.91
3377,[4652],Y0.4Pr0.6Ba1Sr1Cu3O6.92,Y0.4Pr0.6Ba1Sr1Cu3O6.92,"{'Ba': 1.0, 'Cu': 3.0, 'O': 6.92, 'Pr': 0.6000000000000001, 'Sr': 1.0, 'Y': 0.4}",18.0,18.0,0.0,1,Y0.4 Pr0.6 Ba1 Sr1 Cu3 O6.92
3378,[6931],Y1Ba1Sr1Cu3O6.93,Y1Ba1Sr1Cu3O6.93,"{'Ba': 1.0, 'Cu': 3.0, 'O': 6.93, 'Sr': 1.0, 'Y': 1.0}",80.8,80.8,0.0,1,Y1 Ba1 Sr1 Cu3 O6.93
3379,[3288],Sm1Ba1Sr1Cu3O6.94,Sm1Ba1Sr1Cu3O6.94,"{'Ba': 1.0, 'Cu': 3.0, 'O': 6.94, 'Sm': 1.0, 'Sr': 1.0}",80.0,80.0,0.0,1,Sm1 Ba1 Sr1 Cu3 O6.94
3380,[3284],Tm1Ba1Sr1Cu3O6.94,Tm1Ba1Sr1Cu3O6.94,"{'Ba': 1.0, 'Cu': 3.0, 'O': 6.94, 'Sr': 1.0, 'Tm': 1.0}",70.0,70.0,0.0,1,Tm1 Ba1 Sr1 Cu3 O6.94
3381,[3281],Y1Ba1Sr1Cu3O6.94,Y1Ba1Sr1Cu3O6.94,"{'Ba': 1.0, 'Cu': 3.0, 'O': 6.94, 'Sr': 1.0, 'Y': 1.0}",79.0,79.0,0.0,1,Y1 Ba1 Sr1 Cu3 O6.94
3382,[4818],Y1Ba1Sr1Cu3O6.947,Y1Ba1Sr1Cu3O6.947,"{'Ba': 1.0, 'Cu': 3.0, 'O': 6.947, 'Sr': 1.0, 'Y': 1.0}",83.3,83.3,0.0,1,Y1 Ba1 Sr1 Cu3 O6.947
3383,[4155],Y0.3Pr0.7Ba1Sr1Cu3O6.95,Y0.3Pr0.7Ba1Sr1Cu3O6.95,"{'Ba': 1.0, 'Cu': 3.0, 'O': 6.95, 'Pr': 0.7000000000000001, 'Sr': 1.0, 'Y': 0.30000000000000004}",14.0,14.0,0.0,1,Y0.3 Pr0.7 Ba1 Sr1 Cu3 O6.95
3384,[8997],Y1Ba1Sr1Cu3O6.96,Y1Ba1Sr1Cu3O6.96,"{'Ba': 1.0, 'Cu': 3.0, 'O': 6.96, 'Sr': 1.0, 'Y': 1.0}",83.5,83.5,0.0,1,Y1 Ba1 Sr1 Cu3 O6.96