,sc_id,supercon_formula,cleaned_formula,material_dict,highest_Tc,average_Tc,std_Tc,entry_count,composition
3955,[6426],Nd1Ba1.8La0.2O6.81,Nd1Ba1.8La0.2O6.81,"{'Ba': 1.8, 'La': 0.2, 'Nd': 1.0, 'O': 6.8100000000000005}",78.5,78.5,0.0,1,Nd1 Ba1.8 La0.2 O6.81
3956,[4768],Y1Ba1.825La0.175Cu3.5O7.5-z,Y1Ba1.825La0.175Cu3.5O7.5,"{'Ba': 1.8250000000000002, 'Cu': 3.5, 'La': 0.17500000000000002, 'O': 7.5, 'Y': 1.0}",54.3,54.3,0.0,1,Y1 Ba1.825 La0.175 Cu3.5 O7.5
3957,[9452],Y1Ba1.85Cu2.85Co0.15O6.94,Y1Ba1.85Cu2.85Co0.15O6.94,"{'Ba': 1.85, 'Co': 0.15, 'Cu': 2.85, 'O': 6.94, 'Y': 1.0}",55.0,55.0,0.0,1,Y1 Ba1.85 Cu2.85 Co0.15 O6.94
3958,[9447],Y1Ba1.85Cu2.85Co0.15O7.04,Y1Ba1.85Cu2.85Co0.15O7.04,"{'Ba': 1.85, 'Co': 0.15, 'Cu': 2.85, 'O': 7.04, 'Y': 1.0}",79.0,79.0,0.0,1,Y1 Ba1.85 Cu2.85 Co0.15 O7.04
3959,[10843],Gd1Ba1.85Pr0.15Cu3O7.09,Gd1Ba1.85Pr0.15Cu3O7.09,"{'Ba': 1.85, 'Cu': 3.0, 'Gd': 1.0, 'O': 7.09, 'Pr': 0.15}",55.8,55.8,0.0,1,Gd1 Ba1.85 Pr0.15 Cu3 O7.09
3960,[11129],Gd1.15Ba1.85Cu3O6.99,Gd1.15Ba1.85Cu3O6.99,"{'Ba': 1.85, 'Cu': 3.0, 'Gd': 1.15, 'O': 6.99}",48.0,48.0,0.0,1,Gd1.15 Ba1.85 Cu3 O6.99
3961,[5781],Nd1.15Ba1.85Cu3O6.96,Nd1.15Ba1.85Cu3O6.96,"{'Ba': 1.85, 'Cu': 3.0, 'Nd': 1.15, 'O': 6.96}",76.8,76.8,0.0,1,Nd1.15 Ba1.85 Cu3 O6.96
3962,[5662],Nd1.15Ba1.85Cu3O7+z,Nd1.15Ba1.85Cu3O7,"{'Ba': 1.85, 'Cu': 3.0, 'Nd': 1.15, 'O': 7.0}",67.1,67.1,0.0,1,Nd1.15 Ba1.85 Cu3 O7
3963,[474],Sm1.15Ba1.85Cu3O6.95,Sm1.15Ba1.85Cu3O6.95,"{'Ba': 1.85, 'Cu': 3.0, 'O': 6.95, 'Sm': 1.15}",77.3,77.3,0.0,1,Sm1.15 Ba1.85 Cu3 O6.95
3964,[4694],Sm1.15Ba1.85Cu3O7,Sm1.15Ba1.85Cu3O7,"{'Ba': 1.85, 'Cu': 3.0, 'O': 7.0, 'Sm': 1.15}",83.0,83.0,0.0,1,Sm1.15 Ba1.85 Cu3 O7
3965,[9650],Sm1Ba1.85Pr0.15Cu3O7.02,Sm1Ba1.85Pr0.15Cu3O7.02,"{'Ba': 1.85, 'Cu': 3.0, 'O': 7.02, 'Pr': 0.15, 'Sm': 1.0}",35.0,35.0,0.0,1,Sm1 Ba1.85 Pr0.15 Cu3 O7.02
3966,[4767],Y1Ba1.85La0.15Cu3.5O7.5-z,Y1Ba1.85La0.15Cu3.5O7.5,"{'Ba': 1.85, 'Cu': 3.5, 'La': 0.15, 'O': 7.5, 'Y': 1.0}",62.2,62.2,0.0,1,Y1 Ba1.85 La0.15 Cu3.5 O7.5
3967,[3544],Y1Ba1.86La0.14Cu3O6.96,Y1Ba1.86La0.14Cu3O6.96,"{'Ba': 1.8599999999999999, 'Cu': 3.0, 'La': 0.14, 'O': 6.96, 'Y': 1.0}",91.9,91.9,0.0,1,Y1 Ba1.86 La0.14 Cu3 O6.96
3968,[573],Y1Ba1.86La0.14Cu3O6.98,Y1Ba1.86La0.14Cu3O6.98,"{'Ba': 1.8599999999999999, 'Cu': 3.0, 'La': 0.14, 'O': 6.98, 'Y': 1.0}",89.4,89.4,0.0,1,Y1 Ba1.86 La0.14 Cu3 O6.98
3969,[4809],La1Ba1.87Ca0.13Cu3O6.923,La1Ba1.87Ca0.13Cu3O6.923,"{'Ba': 1.87, 'Ca': 0.13, 'Cu': 3.0, 'La': 1.0, 'O': 6.923}",82.0,82.0,0.0,1,La1 Ba1.87 Ca0.13 Cu3 O6.923
3970,[4776],Y1Ba1.87La0.13Cu4O8,Y1Ba1.87La0.13Cu4O8,"{'Ba': 1.87, 'Cu': 4.0, 'La': 0.13, 'O': 8.0, 'Y': 1.0}",61.0,61.0,0.0,1,Y1 Ba1.87 La0.13 Cu4 O8
3971,[4766],Y1Ba1.875La0.125Cu3.5O7.5-z,Y1Ba1.875La0.125Cu3.5O7.5,"{'Ba': 1.875, 'Cu': 3.5, 'La': 0.125, 'O': 7.5, 'Y': 1.0}",64.0,64.0,0.0,1,Y1 Ba1.875 La0.125 Cu3.5 O7.5
3972,[3543],Y1Ba1.88La0.12Cu3O6.96,Y1Ba1.88La0.12Cu3O6.96,"{'Ba': 1.88, 'Cu': 3.0, 'La': 0.12, 'O': 6.96, 'Y': 1.0}",93.2,93.2,0.0,1,Y1 Ba1.88 La0.12 Cu3 O6.96
3973,[3542],Y1Ba1.89La0.11Cu3O6.96,Y1Ba1.89La0.11Cu3O6.96,"{'Ba': 1.8900000000000001, 'Cu': 3.0, 'La': 0.11, 'O': 6.96, 'Y': 1.0}",93.6,93.6,0.0,1,Y1 Ba1.89 La0.11 Cu3 O6.96
3974,[3844],Ba1.9K0.1Pb0.85Bi0.15O4,Ba1.9K0.1Pb0.85Bi0.15O4,"{'Ba': 1.9, 'Bi': 0.15, 'K': 0.1, 'O': 4.0, 'Pb': 0.85}",12.5,12.5,0.0,1,Ba1.9 K0.1 Pb0.85 Bi0.15 O4
3975,[2019],Y0.95Ca0.05Ba1.9La0.1Cu4O7.9,Y0.95Ca0.05Ba1.9La0.1Cu4O7.9,"{'Ba': 1.9, 'Ca': 0.05, 'Cu': 4.0, 'La': 0.1, 'O': 7.9, 'Y': 0.9500000000000001}",68.8,68.8,0.0,1,Y0.95 Ca0.05 Ba1.9 La0.1 Cu4 O7.9
3976,[4785],Y0.9Ca0.1Ba1.9La0.1Cu3O6.95,Y0.9Ca0.1Ba1.9La0.1Cu3O6.95,"{'Ba': 1.9, 'Ca': 0.1, 'Cu': 3.0, 'La': 0.1, 'O': 6.95, 'Y': 0.9}",86.0,86.0,0.0,1,Y0.9 Ca0.1 Ba1.9 La0.1 Cu3 O6.95
3977,[7929],Y0.9Ca0.1Ba1.9La0.1Cu3O6.96,Y0.9Ca0.1Ba1.9La0.1Cu3O6.96,"{'Ba': 1.9, 'Ca': 0.1, 'Cu': 3.0, 'La': 0.1, 'O': 6.96, 'Y': 0.9}",82.0,82.0,0.0,1,Y0.9 Ca0.1 Ba1.9 La0.1 Cu3 O6.96
3978,[981],Y1Ba1.9Ca0.1Cu3O6.84,Y1Ba1.9Ca0.1Cu3O6.84,"{'Ba': 1.9, 'Ca': 0.1, 'Cu': 3.0, 'O': 6.84, 'Y': 1.0}",85.0,85.0,0.0,1,Y1 Ba1.9 Ca0.1 Cu3 O6.84
3979,[2020],Y0.9Ca0.1Ba1.9La0.1Cu4O7.8,Y0.9Ca0.1Ba1.9La0.1Cu4O7.8,"{'Ba': 1.9, 'Ca': 0.1, 'Cu': 4.0, 'La': 0.1, 'O': 7.8, 'Y': 0.9}",79.0,79.0,0.0,1,Y0.9 Ca0.1 Ba1.9 La0.1 Cu4 O7.8
3980,[4770],Y1Ba1.9Ca0.1Cu4O8,Y1Ba1.9Ca0.1Cu4O8,"{'Ba': 1.9, 'Ca': 0.1, 'Cu': 4.0, 'O': 8.0, 'Y': 1.0}",85.4,85.4,0.0,1,Y1 Ba1.9 Ca0.1 Cu4 O8
3981,[10986],Hg2Ba1.9Sr0.1Y0.8Ca0.2Cu2O8-z,Hg2Ba1.9Sr0.1Y0.8Ca0.2Cu2O8,"{'Ba': 1.9, 'Ca': 0.2, 'Cu': 2.0, 'Hg': 2.0, 'O': 8.0, 'Sr': 0.1, 'Y': 0.8}",27.0,27.0,0.0,1,Hg2 Ba1.9 Sr0.1 Y0.8 Ca0.2 Cu2 O8
3982,[7417],La1.9Yb0.3Ba1.9Ca0.6Cu5O11.797,La1.9Yb0.3Ba1.9Ca0.6Cu5O11.797,"{'Ba': 1.9, 'Ca': 0.6000000000000001, 'Cu': 5.0, 'La': 1.9, 'O': 11.797, 'Yb': 0.30000000000000004}",60.0,60.0,0.0,1,La1.9 Yb0.3 Ba1.9 Ca0.6 Cu5 O11.797
3983,[9451],Y1Ba1.9Cu2.9Co0.1O6.92,Y1Ba1.9Cu2.9Co0.1O6.92,"{'Ba': 1.9, 'Co': 0.1, 'Cu': 2.9, 'O': 6.92, 'Y': 1.0}",66.0,66.0,0.0,1,Y1 Ba1.9 Cu2.9 Co0.1 O6.92
3984,[9446],Y1Ba1.9Cu2.9Co0.1O7.02,Y1Ba1.9Cu2.9Co0.1O7.02,"{'Ba': 1.9, 'Co': 0.1, 'Cu': 2.9, 'O': 7.02, 'Y': 1.0}",89.0,89.0,0.0,1,Y1 Ba1.9 Cu2.9 Co0.1 O7.02
3985,[3973],Y1Ba1.9Cs0.1Cu3O6.65,Y1Ba1.9Cs0.1Cu3O6.65,"{'Ba': 1.9, 'Cs': 0.1, 'Cu': 3.0, 'O': 6.65, 'Y': 1.0}",93.45,93.45,0.0,1,Y1 Ba1.9 Cs0.1 Cu3 O6.65
3986,[991],Y0.9Er0.1Ba1.9Sr0.1Cu3O7-Z,Y0.9Er0.1Ba1.9Sr0.1Cu3O7,"{'Ba': 1.9, 'Cu': 3.0, 'Er': 0.1, 'O': 7.0, 'Sr': 0.1, 'Y': 0.9}",88.0,88.0,0.0,1,Y0.9 Er0.1 Ba1.9 Sr0.1 Cu3 O7
3987,[9942],Eu1Ba1.9Pr0.1Cu3O6.75,Eu1Ba1.9Pr0.1Cu3O6.75,"{'Ba': 1.9, 'Cu': 3.0, 'Eu': 1.0, 'O': 6.75, 'Pr': 0.1}",73.0,73.0,0.0,1,Eu1 Ba1.9 Pr0.1 Cu3 O6.75
3988,[2902],Eu1.1Ba1.9Cu3O7.07,Eu1.1Ba1.9Cu3O7.07,"{'Ba': 1.9, 'Cu': 3.0, 'Eu': 1.1, 'O': 7.07}",81.0,81.0,0.0,1,Eu1.1 Ba1.9 Cu3 O7.07
3989,[10842],Gd1Ba1.9Pr0.1Cu3O7.03,Gd1Ba1.9Pr0.1Cu3O7.03,"{'Ba': 1.9, 'Cu': 3.0, 'Gd': 1.0, 'O': 7.03, 'Pr': 0.1}",63.3,63.3,0.0,1,Gd1 Ba1.9 Pr0.1 Cu3 O7.03
3990,"[9214, 11255]",Gd1.1Ba1.9Cu3O7-z,Gd1.1Ba1.9Cu3O7,"{'Ba': 1.9, 'Cu': 3.0, 'Gd': 1.1, 'O': 7.0}",93.0,86.8,6.2,2,Gd1.1 Ba1.9 Cu3 O7
3991,[3967],Y1Ba1.9K0.1Cu3O6.61,Y1Ba1.9K0.1Cu3O6.61,"{'Ba': 1.9, 'Cu': 3.0, 'K': 0.1, 'O': 6.61, 'Y': 1.0}",92.7,92.7,0.0,1,Y1 Ba1.9 K0.1 Cu3 O6.61
3992,[1010],Y1Ba1.9K0.1Cu3O6.9,Y1Ba1.9K0.1Cu3O6.9,"{'Ba': 1.9, 'Cu': 3.0, 'K': 0.1, 'O': 6.9, 'Y': 1.0}",91.5,91.5,0.0,1,Y1 Ba1.9 K0.1 Cu3 O6.9
3993,[4737],Y1Ba1.9La0.1Cu3O6.5,Y1Ba1.9La0.1Cu3O6.5,"{'Ba': 1.9, 'Cu': 3.0, 'La': 0.1, 'O': 6.5, 'Y': 1.0}",32.9,32.9,0.0,1,Y1 Ba1.9 La0.1 Cu3 O6.5
3994,[4736],Y1Ba1.9La0.1Cu3O6.6,Y1Ba1.9La0.1Cu3O6.6,"{'Ba': 1.9, 'Cu': 3.0, 'La': 0.1, 'O': 6.6, 'Y': 1.0}",50.6,50.6,0.0,1,Y1 Ba1.9 La0.1 Cu3 O6.6
3995,[4735],Y1Ba1.9La0.1Cu3O6.7,Y1Ba1.9La0.1Cu3O6.7,"{'Ba': 1.9, 'Cu': 3.0, 'La': 0.1, 'O': 6.7, 'Y': 1.0}",54.5,54.5,0.0,1,Y1 Ba1.9 La0.1 Cu3 O6.7
3996,[3984],Y1Ba1.9La0.1Cu3O6.73,Y1Ba1.9La0.1Cu3O6.73,"{'Ba': 1.9, 'Cu': 3.0, 'La': 0.1, 'O': 6.73, 'Y': 1.0}",92.85,92.85,0.0,1,Y1 Ba1.9 La0.1 Cu3 O6.73
3997,[4734],Y1Ba1.9La0.1Cu3O6.8,Y1Ba1.9La0.1Cu3O6.8,"{'Ba': 1.9, 'Cu': 3.0, 'La': 0.1, 'O': 6.8, 'Y': 1.0}",57.9,57.9,0.0,1,Y1 Ba1.9 La0.1 Cu3 O6.8
3998,[4733],Y1Ba1.9La0.1Cu3O6.85,Y1Ba1.9La0.1Cu3O6.85,"{'Ba': 1.9, 'Cu': 3.0, 'La': 0.1, 'O': 6.85, 'Y': 1.0}",67.0,67.0,0.0,1,Y1 Ba1.9 La0.1 Cu3 O6.85
3999,"[385, 4732]",Y1Ba1.9La0.1Cu3O6.9,Y1Ba1.9La0.1Cu3O6.9,"{'Ba': 1.9, 'Cu': 3.0, 'La': 0.1, 'O': 6.9, 'Y': 1.0}",95.0,88.4,6.6,2,Y1 Ba1.9 La0.1 Cu3 O6.9
4000,"[4780, 9440]",Y1Ba1.9La0.1Cu3O6.92,Y1Ba1.9La0.1Cu3O6.92,"{'Ba': 1.9, 'Cu': 3.0, 'La': 0.1, 'O': 6.92, 'Y': 1.0}",93.0,90.0,3.0,2,Y1 Ba1.9 La0.1 Cu3 O6.92
4001,[3541],Y1Ba1.9La0.1Cu3O6.96,Y1Ba1.9La0.1Cu3O6.96,"{'Ba': 1.9, 'Cu': 3.0, 'La': 0.1, 'O': 6.96, 'Y': 1.0}",93.5,93.5,0.0,1,Y1 Ba1.9 La0.1 Cu3 O6.96
4002,[572],Y1Ba1.9La0.1Cu3O6.975,Y1Ba1.9La0.1Cu3O6.975,"{'Ba': 1.9, 'Cu': 3.0, 'La': 0.1, 'O': 6.975, 'Y': 1.0}",93.9,93.9,0.0,1,Y1 Ba1.9 La0.1 Cu3 O6.975
4003,"[9370, 9433]",Y1Ba1.9La0.1Cu3O6.99,Y1Ba1.9La0.1Cu3O6.99,"{'Ba': 1.9, 'Cu': 3.0, 'La': 0.1, 'O': 6.99, 'Y': 1.0}",91.0,90.675,0.325,2,Y1 Ba1.9 La0.1 Cu3 O6.99
4004,"[4731, 4750]",Y1Ba1.9La0.1Cu3O7,Y1Ba1.9La0.1Cu3O7,"{'Ba': 1.9, 'Cu': 3.0, 'La': 0.1, 'O': 7.0, 'Y': 1.0}",96.1,92.35,3.75,2,Y1 Ba1.9 La0.1 Cu3 O7
4005,[2484],Y1Ba1.9La0.1Cu3O7.06,Y1Ba1.9La0.1Cu3O7.06,"{'Ba': 1.9, 'Cu': 3.0, 'La': 0.1, 'O': 7.06, 'Y': 1.0}",91.9,91.9,0.0,1,Y1 Ba1.9 La0.1 Cu3 O7.06
4006,[8172],Y1Ba1.9La0.1Cu3O8,Y1Ba1.9La0.1Cu3O8,"{'Ba': 1.9, 'Cu': 3.0, 'La': 0.1, 'O': 8.0, 'Y': 1.0}",64.0,64.0,0.0,1,Y1 Ba1.9 La0.1 Cu3 O8
4007,[1238],Nd1.1Ba1.9Cu3O6.9,Nd1.1Ba1.9Cu3O6.9,"{'Ba': 1.9, 'Cu': 3.0, 'Nd': 1.1, 'O': 6.9}",92.0,92.0,0.0,1,Nd1.1 Ba1.9 Cu3 O6.9
4008,[4849],Nd1.1Ba1.9Cu3O6.935,Nd1.1Ba1.9Cu3O6.935,"{'Ba': 1.9, 'Cu': 3.0, 'Nd': 1.1, 'O': 6.9350000000000005}",76.0,76.0,0.0,1,Nd1.1 Ba1.9 Cu3 O6.935
4009,[5780],Nd1.1Ba1.9Cu3O6.96,Nd1.1Ba1.9Cu3O6.96,"{'Ba': 1.9, 'Cu': 3.0, 'Nd': 1.1, 'O': 6.96}",87.6,87.6,0.0,1,Nd1.1 Ba1.9 Cu3 O6.96
4010,"[609, 2185]",Nd1.1Ba1.9Cu3O7-Z,Nd1.1Ba1.9Cu3O7,"{'Ba': 1.9, 'Cu': 3.0, 'Nd': 1.1, 'O': 7.0}",82.3,80.4,1.9,2,Nd1.1 Ba1.9 Cu3 O7
4011,[2895],Nd1.1Ba1.9Cu3O7.05,Nd1.1Ba1.9Cu3O7.05,"{'Ba': 1.9, 'Cu': 3.0, 'Nd': 1.1, 'O': 7.05}",65.5,65.5,0.0,1,Nd1.1 Ba1.9 Cu3 O7.05
4012,[3970],Y1Ba1.9Rb0.1Cu3O6.52,Y1Ba1.9Rb0.1Cu3O6.52,"{'Ba': 1.9, 'Cu': 3.0, 'O': 6.52, 'Rb': 0.1, 'Y': 1.0}",93.35,93.35,0.0,1,Y1 Ba1.9 Rb0.1 Cu3 O6.52
4013,[3980],Y1Ba1.9Sc0.1Cu3O6.55,Y1Ba1.9Sc0.1Cu3O6.55,"{'Ba': 1.9, 'Cu': 3.0, 'O': 6.55, 'Sc': 0.1, 'Y': 1.0}",88.95,88.95,0.0,1,Y1 Ba1.9 Sc0.1 Cu3 O6.55
4014,[3982],Y1.1Ba1.9Cu3O6.65,Y1.1Ba1.9Cu3O6.65,"{'Ba': 1.9, 'Cu': 3.0, 'O': 6.65, 'Y': 1.1}",91.25,91.25,0.0,1,Y1.1 Ba1.9 Cu3 O6.65
4015,[982],Y1Ba1.9Sr0.1Cu3O6.89,Y1Ba1.9Sr0.1Cu3O6.89,"{'Ba': 1.9, 'Cu': 3.0, 'O': 6.89, 'Sr': 0.1, 'Y': 1.0}",89.0,89.0,0.0,1,Y1 Ba1.9 Sr0.1 Cu3 O6.89
4016,[9649],Sm1Ba1.9Pr0.1Cu3O6.99,Sm1Ba1.9Pr0.1Cu3O6.99,"{'Ba': 1.9, 'Cu': 3.0, 'O': 6.99, 'Pr': 0.1, 'Sm': 1.0}",56.4,56.4,0.0,1,Sm1 Ba1.9 Pr0.1 Cu3 O6.99
4017,[812],Sm1.1Ba1.9Cu3O7-Z,Sm1.1Ba1.9Cu3O7,"{'Ba': 1.9, 'Cu': 3.0, 'O': 7.0, 'Sm': 1.1}",73.0,73.0,0.0,1,Sm1.1 Ba1.9 Cu3 O7
4018,[10378],Y1Ba1.9Sr0.1Cu3O7-z,Y1Ba1.9Sr0.1Cu3O7,"{'Ba': 1.9, 'Cu': 3.0, 'O': 7.0, 'Sr': 0.1, 'Y': 1.0}",88.0,88.0,0.0,1,Y1 Ba1.9 Sr0.1 Cu3 O7
4019,"[1032, 1052]",Y1.1Ba1.9Cu3O7-Z,Y1.1Ba1.9Cu3O7,"{'Ba': 1.9, 'Cu': 3.0, 'O': 7.0, 'Y': 1.1}",92.0,91.5,0.5,2,Y1.1 Ba1.9 Cu3 O7
4020,[2899],Sm1.1Ba1.9Cu3O7.05,Sm1.1Ba1.9Cu3O7.05,"{'Ba': 1.9, 'Cu': 3.0, 'O': 7.05, 'Sm': 1.1}",78.5,78.5,0.0,1,Sm1.1 Ba1.9 Cu3 O7.05
4021,[4765],Y1Ba1.9La0.1Cu3.5O7.5-z,Y1Ba1.9La0.1Cu3.5O7.5,"{'Ba': 1.9, 'Cu': 3.5, 'La': 0.1, 'O': 7.5, 'Y': 1.0}",70.5,70.5,0.0,1,Y1 Ba1.9 La0.1 Cu3.5 O7.5
4022,[8175],Y1Ba1.9La0.1Cu3.93Zn0.07O8,Y1Ba1.9La0.1Cu3.93Zn0.07O8,"{'Ba': 1.9, 'Cu': 3.93, 'La': 0.1, 'O': 8.0, 'Y': 1.0, 'Zn': 0.07}",17.8,17.8,0.0,1,Y1 Ba1.9 La0.1 Cu3.93 Zn0.07 O8
4023,[8174],Y1Ba1.9La0.1Cu3.95Zn0.05O8,Y1Ba1.9La0.1Cu3.95Zn0.05O8,"{'Ba': 1.9, 'Cu': 3.95, 'La': 0.1, 'O': 8.0, 'Y': 1.0, 'Zn': 0.05}",33.3,33.3,0.0,1,Y1 Ba1.9 La0.1 Cu3.95 Zn0.05 O8
4024,[8173],Y1Ba1.9La0.1Cu3.972Zn0.028O8,Y1Ba1.9La0.1Cu3.972Zn0.028O8,"{'Ba': 1.9, 'Cu': 3.972, 'La': 0.1, 'O': 8.0, 'Y': 1.0, 'Zn': 0.028}",48.7,48.7,0.0,1,Y1 Ba1.9 La0.1 Cu3.972 Zn0.028 O8
4025,"[5733, 6257]",Gd1Sr0.1Ba1.9Cu4O8,Gd1Sr0.1Ba1.9Cu4O8,"{'Ba': 1.9, 'Cu': 4.0, 'Gd': 1.0, 'O': 8.0, 'Sr': 0.1}",77.0,75.25,1.75,2,Gd1 Sr0.1 Ba1.9 Cu4 O8
4026,[2014],Y1Ba1.9La0.1Cu4O7.8,Y1Ba1.9La0.1Cu4O7.8,"{'Ba': 1.9, 'Cu': 4.0, 'La': 0.1, 'O': 7.8, 'Y': 1.0}",67.8,67.8,0.0,1,Y1 Ba1.9 La0.1 Cu4 O7.8
4027,[4775],Y1Ba1.9La0.1Cu4O8,Y1Ba1.9La0.1Cu4O8,"{'Ba': 1.9, 'Cu': 4.0, 'La': 0.1, 'O': 8.0, 'Y': 1.0}",61.0,61.0,0.0,1,Y1 Ba1.9 La0.1 Cu4 O8
4028,[1192],Y1Ba1.9Sr0.1Cu4O7.9,Y1Ba1.9Sr0.1Cu4O7.9,"{'Ba': 1.9, 'Cu': 4.0, 'O': 7.9, 'Sr': 0.1, 'Y': 1.0}",78.0,78.0,0.0,1,Y1 Ba1.9 Sr0.1 Cu4 O7.9
4029,[6425],Nd1Ba1.9La0.1O6.86,Nd1Ba1.9La0.1O6.86,"{'Ba': 1.9, 'La': 0.1, 'Nd': 1.0, 'O': 6.86}",83.5,83.5,0.0,1,Nd1 Ba1.9 La0.1 O6.86
4030,[3548],Y1Ba1.92La0.08Cu3O6.96,Y1Ba1.92La0.08Cu3O6.96,"{'Ba': 1.92, 'Cu': 3.0, 'La': 0.08, 'O': 6.96, 'Y': 1.0}",94.0,94.0,0.0,1,Y1 Ba1.92 La0.08 Cu3 O6.96
4031,[571],Y1Ba1.92La0.08Cu3O6.965,Y1Ba1.92La0.08Cu3O6.965,"{'Ba': 1.92, 'Cu': 3.0, 'La': 0.08, 'O': 6.965, 'Y': 1.0}",92.6,92.6,0.0,1,Y1 Ba1.92 La0.08 Cu3 O6.965
4032,[9068],Nd1.08Ba1.92Cu3O6.17,Nd1.08Ba1.92Cu3O6.17,"{'Ba': 1.92, 'Cu': 3.0, 'Nd': 1.08, 'O': 6.17}",77.5,77.5,0.0,1,Nd1.08 Ba1.92 Cu3 O6.17
4033,[384],Y1Ba1.925La0.075Cu3O6.9,Y1Ba1.925La0.075Cu3O6.9,"{'Ba': 1.925, 'Cu': 3.0, 'La': 0.075, 'O': 6.9, 'Y': 1.0}",99.0,99.0,0.0,1,Y1 Ba1.925 La0.075 Cu3 O6.9
4034,[4764],Y1Ba1.925La0.075Cu3.5O7.5-z,Y1Ba1.925La0.075Cu3.5O7.5,"{'Ba': 1.925, 'Cu': 3.5, 'La': 0.075, 'O': 7.5, 'Y': 1.0}",77.3,77.3,0.0,1,Y1 Ba1.925 La0.075 Cu3.5 O7.5
4035,[4771],Y1Ba1.926Ca0.074Cu4O8,Y1Ba1.926Ca0.074Cu4O8,"{'Ba': 1.9260000000000002, 'Ca': 0.074, 'Cu': 4.0, 'O': 8.0, 'Y': 1.0}",83.3,83.3,0.0,1,Y1 Ba1.926 Ca0.074 Cu4 O8
4036,[3047],Eu1Ba1.93Cu2.92O7,Eu1Ba1.93Cu2.92O7,"{'Ba': 1.9300000000000002, 'Cu': 2.92, 'Eu': 1.0, 'O': 7.0}",83.2,83.2,0.0,1,Eu1 Ba1.93 Cu2.92 O7
4037,[3547],Y1Ba1.94La0.06Cu3O6.96,Y1Ba1.94La0.06Cu3O6.96,"{'Ba': 1.94, 'Cu': 3.0, 'La': 0.06, 'O': 6.96, 'Y': 1.0}",94.0,94.0,0.0,1,Y1 Ba1.94 La0.06 Cu3 O6.96
4038,[4121],Gd0.95Ba1.95Ca0.1Cu4O8,Gd0.95Ba1.95Ca0.1Cu4O8,"{'Ba': 1.9500000000000002, 'Ca': 0.1, 'Cu': 4.0, 'Gd': 0.9500000000000001, 'O': 8.0}",80.0,80.0,0.0,1,Gd0.95 Ba1.95 Ca0.1 Cu4 O8
4039,[4120],Y0.95Ba1.95Ca0.1Cu4O8,Y0.95Ba1.95Ca0.1Cu4O8,"{'Ba': 1.9500000000000002, 'Ca': 0.1, 'Cu': 4.0, 'O': 8.0, 'Y': 0.9500000000000001}",80.0,80.0,0.0,1,Y0.95 Ba1.95 Ca0.1 Cu4 O8
4040,[1484],Y0.85Ba1.95Ca0.2Cu4O8,Y0.85Ba1.95Ca0.2Cu4O8,"{'Ba': 1.9500000000000002, 'Ca': 0.2, 'Cu': 4.0, 'O': 8.0, 'Y': 0.85}",91.6,91.6,0.0,1,Y0.85 Ba1.95 Ca0.2 Cu4 O8
4041,[9450],Y1Ba1.95Cu2.95Co0.05O6.9,Y1Ba1.95Cu2.95Co0.05O6.9,"{'Ba': 1.9500000000000002, 'Co': 0.05, 'Cu': 2.95, 'O': 6.9, 'Y': 1.0}",70.0,70.0,0.0,1,Y1 Ba1.95 Cu2.95 Co0.05 O6.9
4042,[9445],Y1Ba1.95Cu2.95Co0.05O7,Y1Ba1.95Cu2.95Co0.05O7,"{'Ba': 1.9500000000000002, 'Co': 0.05, 'Cu': 2.95, 'O': 7.0, 'Y': 1.0}",90.0,90.0,0.0,1,Y1 Ba1.95 Cu2.95 Co0.05 O7
4043,[826],Y1Ba1.95Cs0.05Cu3O7-Z,Y1Ba1.95Cs0.05Cu3O7,"{'Ba': 1.9500000000000002, 'Cs': 0.05, 'Cu': 3.0, 'O': 7.0, 'Y': 1.0}",85.5,85.5,0.0,1,Y1 Ba1.95 Cs0.05 Cu3 O7
4044,[10841],Gd1Ba1.95Pr0.05Cu3O7.03,Gd1Ba1.95Pr0.05Cu3O7.03,"{'Ba': 1.9500000000000002, 'Cu': 3.0, 'Gd': 1.0, 'O': 7.03, 'Pr': 0.05}",86.8,86.8,0.0,1,Gd1 Ba1.95 Pr0.05 Cu3 O7.03
4045,[11128],Gd1.05Ba1.95Cu3O6.94,Gd1.05Ba1.95Cu3O6.94,"{'Ba': 1.9500000000000002, 'Cu': 3.0, 'Gd': 1.05, 'O': 6.94}",85.0,85.0,0.0,1,Gd1.05 Ba1.95 Cu3 O6.94
4046,[9439],Y1Ba1.95La0.05Cu3O6.89,Y1Ba1.95La0.05Cu3O6.89,"{'Ba': 1.9500000000000002, 'Cu': 3.0, 'La': 0.05, 'O': 6.89, 'Y': 1.0}",86.0,86.0,0.0,1,Y1 Ba1.95 La0.05 Cu3 O6.89
4047,[383],Y1Ba1.95La0.05Cu3O6.9,Y1Ba1.95La0.05Cu3O6.9,"{'Ba': 1.9500000000000002, 'Cu': 3.0, 'La': 0.05, 'O': 6.9, 'Y': 1.0}",99.0,99.0,0.0,1,Y1 Ba1.95 La0.05 Cu3 O6.9
4048,[3546],Y1Ba1.95La0.05Cu3O6.96,Y1Ba1.95La0.05Cu3O6.96,"{'Ba': 1.9500000000000002, 'Cu': 3.0, 'La': 0.05, 'O': 6.96, 'Y': 1.0}",93.8,93.8,0.0,1,Y1 Ba1.95 La0.05 Cu3 O6.96
4049,"[9369, 9432]",Y1Ba1.95La0.05Cu3O6.98,Y1Ba1.95La0.05Cu3O6.98,"{'Ba': 1.9500000000000002, 'Cu': 3.0, 'La': 0.05, 'O': 6.98, 'Y': 1.0}",90.0,89.65,0.35000000000000003,2,Y1 Ba1.95 La0.05 Cu3 O6.98
4050,[5661],Nd1.05Ba1.95Cu3O7+z,Nd1.05Ba1.95Cu3O7,"{'Ba': 1.9500000000000002, 'Cu': 3.0, 'Nd': 1.05, 'O': 7.0}",91.9,91.9,0.0,1,Nd1.05 Ba1.95 Cu3 O7
4051,[473],Sm1.05Ba1.95Cu3O6.87,Sm1.05Ba1.95Cu3O6.87,"{'Ba': 1.9500000000000002, 'Cu': 3.0, 'O': 6.87, 'Sm': 1.05}",89.75,89.75,0.0,1,Sm1.05 Ba1.95 Cu3 O6.87
4052,[4693],Sm1.05Ba1.95Cu3O6.99,Sm1.05Ba1.95Cu3O6.99,"{'Ba': 1.9500000000000002, 'Cu': 3.0, 'O': 6.99, 'Sm': 1.05}",88.5,88.5,0.0,1,Sm1.05 Ba1.95 Cu3 O6.99
4053,[3545],Y1Ba1.96La0.04Cu3O6.96,Y1Ba1.96La0.04Cu3O6.96,"{'Ba': 1.96, 'Cu': 3.0, 'La': 0.04, 'O': 6.96, 'Y': 1.0}",93.6,93.6,0.0,1,Y1 Ba1.96 La0.04 Cu3 O6.96
4054,[7072],Nd1.04Ba1.96Cu3O7-Z,Nd1.04Ba1.96Cu3O7,"{'Ba': 1.96, 'Cu': 3.0, 'Nd': 1.04, 'O': 7.0}",86.0,86.0,0.0,1,Nd1.04 Ba1.96 Cu3 O7
4055,[1591],Y1.04Ba1.96Cu3O6.8,Y1.04Ba1.96Cu3O6.8,"{'Ba': 1.96, 'Cu': 3.0, 'O': 6.8, 'Y': 1.04}",90.6,90.6,0.0,1,Y1.04 Ba1.96 Cu3 O6.8
4056,[6910],Y1Ba1.96Sr0.04Cu3O6.98,Y1Ba1.96Sr0.04Cu3O6.98,"{'Ba': 1.96, 'Cu': 3.0, 'O': 6.98, 'Sr': 0.04, 'Y': 1.0}",91.8,91.8,0.0,1,Y1 Ba1.96 Sr0.04 Cu3 O6.98
4057,[10377],Y1Ba1.96Sr0.04Cu3O7-z,Y1Ba1.96Sr0.04Cu3O7,"{'Ba': 1.96, 'Cu': 3.0, 'O': 7.0, 'Sr': 0.04, 'Y': 1.0}",90.0,90.0,0.0,1,Y1 Ba1.96 Sr0.04 Cu3 O7
4058,[1483],Y0.887Ba1.962Ca0.15Cu4O8,Y0.887Ba1.962Ca0.15Cu4O8,"{'Ba': 1.962, 'Ca': 0.15, 'Cu': 4.0, 'O': 8.0, 'Y': 0.887}",91.8,91.8,0.0,1,Y0.887 Ba1.962 Ca0.15 Cu4 O8
4059,[3552],Y1Ba1.97La0.03Cu3O6.96,Y1Ba1.97La0.03Cu3O6.96,"{'Ba': 1.97, 'Cu': 3.0, 'La': 0.03, 'O': 6.96, 'Y': 1.0}",93.2,93.2,0.0,1,Y1 Ba1.97 La0.03 Cu3 O6.96
4060,[3046],Dy1Ba1.97Cu3.06O7,Dy1Ba1.97Cu3.06O7,"{'Ba': 1.97, 'Cu': 3.06, 'Dy': 1.0, 'O': 7.0}",87.1,87.1,0.0,1,Dy1 Ba1.97 Cu3.06 O7
4061,[4772],Y1Ba1.972Ca0.028Cu4O8,Y1Ba1.972Ca0.028Cu4O8,"{'Ba': 1.972, 'Ca': 0.028, 'Cu': 4.0, 'O': 8.0, 'Y': 1.0}",79.7,79.7,0.0,1,Y1 Ba1.972 Ca0.028 Cu4 O8
4062,[1482],Y0.925Ba1.975Ca0.1Cu4O8,Y0.925Ba1.975Ca0.1Cu4O8,"{'Ba': 1.975, 'Ca': 0.1, 'Cu': 4.0, 'O': 8.0, 'Y': 0.925}",92.3,92.3,0.0,1,Y0.925 Ba1.975 Ca0.1 Cu4 O8
4063,[382],Y1Ba1.975La0.025Cu3O6.95,Y1Ba1.975La0.025Cu3O6.95,"{'Ba': 1.975, 'Cu': 3.0, 'La': 0.025, 'O': 6.95, 'Y': 1.0}",99.0,99.0,0.0,1,Y1 Ba1.975 La0.025 Cu3 O6.95
4064,[3551],Y1Ba1.98La0.02Cu3O6.96,Y1Ba1.98La0.02Cu3O6.96,"{'Ba': 1.98, 'Cu': 3.0, 'La': 0.02, 'O': 6.96, 'Y': 1.0}",92.6,92.6,0.0,1,Y1 Ba1.98 La0.02 Cu3 O6.96
4065,[3045],Gd1Ba1.98Cu3.05O7,Gd1Ba1.98Cu3.05O7,"{'Ba': 1.98, 'Cu': 3.05, 'Gd': 1.0, 'O': 7.0}",89.4,89.4,0.0,1,Gd1 Ba1.98 Cu3.05 O7
4066,[4763],Y1Ba1.98La0.02Cu3.5O7.5-z,Y1Ba1.98La0.02Cu3.5O7.5,"{'Ba': 1.98, 'Cu': 3.5, 'La': 0.02, 'O': 7.5, 'Y': 1.0}",87.8,87.8,0.0,1,Y1 Ba1.98 La0.02 Cu3.5 O7.5
4067,[4774],Y1Ba1.98La0.02Cu4O8,Y1Ba1.98La0.02Cu4O8,"{'Ba': 1.98, 'Cu': 4.0, 'La': 0.02, 'O': 8.0, 'Y': 1.0}",74.3,74.3,0.0,1,Y1 Ba1.98 La0.02 Cu4 O8
4068,[1481],Y0.962Ba1.987Ca0.05Cu4O8,Y0.962Ba1.987Ca0.05Cu4O8,"{'Ba': 1.987, 'Ca': 0.05, 'Cu': 4.0, 'O': 8.0, 'Y': 0.962}",91.5,91.5,0.0,1,Y0.962 Ba1.987 Ca0.05 Cu4 O8
4069,[4759],Y0.961Ba1.987Ca0.052Cu3.5O7.5-z,Y0.961Ba1.987Ca0.052Cu3.5O7.5,"{'Ba': 1.987, 'Ca': 0.052000000000000005, 'Cu': 3.5, 'O': 7.5, 'Y': 0.961}",93.5,93.5,0.0,1,Y0.961 Ba1.987 Ca0.052 Cu3.5 O7.5
4070,[174],Y0.99Ba1.99Cu2.847Li0.153O6.4,Y0.99Ba1.99Cu2.847Li0.153O6.4,"{'Ba': 1.99, 'Cu': 2.847, 'Li': 0.153, 'O': 6.4, 'Y': 0.99}",62.0,62.0,0.0,1,Y0.99 Ba1.99 Cu2.847 Li0.153 O6.4
4071,[9273],Y0.19Ba1.99Cu2.85O7-z,Y0.19Ba1.99Cu2.85O7,"{'Ba': 1.99, 'Cu': 2.85, 'O': 7.0, 'Y': 0.19}",94.5,94.5,0.0,1,Y0.19 Ba1.99 Cu2.85 O7
4072,[3550],Y1Ba1.99La0.01Cu3O6.96,Y1Ba1.99La0.01Cu3O6.96,"{'Ba': 1.99, 'Cu': 3.0, 'La': 0.01, 'O': 6.96, 'Y': 1.0}",92.1,92.1,0.0,1,Y1 Ba1.99 La0.01 Cu3 O6.96
4073,[4760],Y0.98Ba1.993Ca0.026Cu3.5O7.5-z,Y0.98Ba1.993Ca0.026Cu3.5O7.5,"{'Ba': 1.9929999999999999, 'Ca': 0.026000000000000002, 'Cu': 3.5, 'O': 7.5, 'Y': 0.98}",94.2,94.2,0.0,1,Y0.98 Ba1.993 Ca0.026 Cu3.5 O7.5
4074,[1480],Y0.981Ba1.994Ca0.025Cu4O8,Y0.981Ba1.994Ca0.025Cu4O8,"{'Ba': 1.994, 'Ca': 0.025, 'Cu': 4.0, 'O': 8.0, 'Y': 0.981}",87.1,87.1,0.0,1,Y0.981 Ba1.994 Ca0.025 Cu4 O8
4075,[4761],Y0.99Ba1.997Ca0.013Cu3.5O7.5-z,Y0.99Ba1.997Ca0.013Cu3.5O7.5,"{'Ba': 1.9969999999999999, 'Ca': 0.013000000000000001, 'Cu': 3.5, 'O': 7.5, 'Y': 0.99}",92.8,92.8,0.0,1,Y0.99 Ba1.997 Ca0.013 Cu3.5 O7.5
4076,[20795],Tl0.5Ba2Ca1.5Be0.5Cu2Ni1.5O10-z,Tl0.5Ba2Ca1.5Be0.5Cu2Ni1.5O10,"{'Ba': 2.0, 'Be': 0.5, 'Ca': 1.5, 'Cu': 2.0, 'Ni': 1.5, 'O': 10.0, 'Tl': 0.5}",100.0,100.0,0.0,1,Tl0.5 Ba2 Ca1.5 Be0.5 Cu2 Ni1.5 O10
4077,[11668],Tl0.5Ba2Ca1.3Be0.7Cu3.5O7.886,Tl0.5Ba2Ca1.3Be0.7Cu3.5O7.886,"{'Ba': 2.0, 'Be': 0.7000000000000001, 'Ca': 1.3, 'Cu': 3.5, 'O': 7.886, 'Tl': 0.5}",95.0,95.0,0.0,1,Tl0.5 Ba2 Ca1.3 Be0.7 Cu3.5 O7.886