,sc_id,supercon_formula,cleaned_formula,material_dict,highest_Tc,average_Tc,std_Tc,entry_count,composition
2454,[17508],Y0.92Lu0.08Ni2B2C1,Y0.92Lu0.08Ni2B2C1,"{'B': 2.0, 'C': 1.0, 'Lu': 0.08, 'Ni': 2.0, 'Y': 0.92}",15.2,15.2,0.0,1,Y0.92 Lu0.08 Ni2 B2 C1
2455,[16142],Y0.9Lu0.1Ni2B2C1,Y0.9Lu0.1Ni2B2C1,"{'B': 2.0, 'C': 1.0, 'Lu': 0.1, 'Ni': 2.0, 'Y': 0.9}",15.56,15.56,0.0,1,Y0.9 Lu0.1 Ni2 B2 C1
2456,[17507],Y0.84Lu0.16Ni2B2C1,Y0.84Lu0.16Ni2B2C1,"{'B': 2.0, 'C': 1.0, 'Lu': 0.16, 'Ni': 2.0, 'Y': 0.84}",14.8,14.8,0.0,1,Y0.84 Lu0.16 Ni2 B2 C1
2457,"[17471, 17506]",Lu0.25Y0.75Ni2B2C1,Lu0.25Y0.75Ni2B2C1,"{'B': 2.0, 'C': 1.0, 'Lu': 0.25, 'Ni': 2.0, 'Y': 0.75}",14.9,14.55,0.35000000000000003,2,Lu0.25 Y0.75 Ni2 B2 C1
2458,[15428],Sc0.5Lu0.5Ni2B2C1,Sc0.5Lu0.5Ni2B2C1,"{'B': 2.0, 'C': 1.0, 'Lu': 0.5, 'Ni': 2.0, 'Sc': 0.5}",15.6,15.6,0.0,1,Sc0.5 Lu0.5 Ni2 B2 C1
2459,"[16143, 17470, 17505]",Y0.5Lu0.5Ni2B2C1,Y0.5Lu0.5Ni2B2C1,"{'B': 2.0, 'C': 1.0, 'Lu': 0.5, 'Ni': 2.0, 'Y': 0.5}",14.9,14.7666666667,0.1885618083,3,Y0.5 Lu0.5 Ni2 B2 C1
2460,[17504],Y0.3Lu0.7Ni2B2C1,Y0.3Lu0.7Ni2B2C1,"{'B': 2.0, 'C': 1.0, 'Lu': 0.7000000000000001, 'Ni': 2.0, 'Y': 0.30000000000000004}",15.0,15.0,0.0,1,Y0.3 Lu0.7 Ni2 B2 C1
2461,[16144],Y0.2Lu0.8Ni2B2C1,Y0.2Lu0.8Ni2B2C1,"{'B': 2.0, 'C': 1.0, 'Lu': 0.8, 'Ni': 2.0, 'Y': 0.2}",14.68,14.68,0.0,1,Y0.2 Lu0.8 Ni2 B2 C1
2462,[17503],Y0.16Lu0.84Ni2B2C1,Y0.16Lu0.84Ni2B2C1,"{'B': 2.0, 'C': 1.0, 'Lu': 0.84, 'Ni': 2.0, 'Y': 0.16}",15.2,15.2,0.0,1,Y0.16 Lu0.84 Ni2 B2 C1
2463,"[15430, 15436, 15529, 15593, 15614, 15625, 15642, 15684, 15689, 16105, 16145, 16155, 16215, 16321, 16538, 16589, 17027, 17029, 17069, 17257, 17318, 17502, 17510, 18860, 22018, 22265, 22266, 22267, 22268]",Lu1Ni2B2C1,Lu1Ni2B2C1,"{'B': 2.0, 'C': 1.0, 'Lu': 1.0, 'Ni': 2.0}",16.7,16.1175862069,0.5394163843,29,Lu1 Ni2 B2 C1
2464,[16423],Y1Ni1.98Mn0.02B2C1,Y1Ni1.98Mn0.02B2C1,"{'B': 2.0, 'C': 1.0, 'Mn': 0.02, 'Ni': 1.98, 'Y': 1.0}",15.48,15.48,0.0,1,Y1 Ni1.98 Mn0.02 B2 C1
2465,[16424],Y1Ni1.9Mn0.1B2C1,Y1Ni1.9Mn0.1B2C1,"{'B': 2.0, 'C': 1.0, 'Mn': 0.1, 'Ni': 1.9, 'Y': 1.0}",12.7,12.7,0.0,1,Y1 Ni1.9 Mn0.1 B2 C1
2466,[16425],Y1Ni1.8Mn0.2B2C1,Y1Ni1.8Mn0.2B2C1,"{'B': 2.0, 'C': 1.0, 'Mn': 0.2, 'Ni': 1.8, 'Y': 1.0}",8.7,8.7,0.0,1,Y1 Ni1.8 Mn0.2 B2 C1
2467,[16426],Y1Ni1.7Mn0.3B2C1,Y1Ni1.7Mn0.3B2C1,"{'B': 2.0, 'C': 1.0, 'Mn': 0.30000000000000004, 'Ni': 1.7000000000000002, 'Y': 1.0}",5.7,5.7,0.0,1,Y1 Ni1.7 Mn0.3 B2 C1
2468,[15462],Y1Ni0.8Pd1.2B2C1,Y1Ni0.8Pd1.2B2C1,"{'B': 2.0, 'C': 1.0, 'Ni': 0.8, 'Pd': 1.2, 'Y': 1.0}",11.8,11.8,0.0,1,Y1 Ni0.8 Pd1.2 B2 C1
2469,[15461],Y1Ni1Pd1B2C1,Y1Ni1Pd1B2C1,"{'B': 2.0, 'C': 1.0, 'Ni': 1.0, 'Pd': 1.0, 'Y': 1.0}",11.8,11.8,0.0,1,Y1 Ni1 Pd1 B2 C1
2470,[17174],Y1Ni1.24Pd0.76B2C1,Y1Ni1.24Pd0.76B2C1,"{'B': 2.0, 'C': 1.0, 'Ni': 1.24, 'Pd': 0.76, 'Y': 1.0}",10.4,10.4,0.0,1,Y1 Ni1.24 Pd0.76 B2 C1
2471,[15460],Y1Ni1.3Pd0.7B2C1,Y1Ni1.3Pd0.7B2C1,"{'B': 2.0, 'C': 1.0, 'Ni': 1.3, 'Pd': 0.7000000000000001, 'Y': 1.0}",12.1,12.1,0.0,1,Y1 Ni1.3 Pd0.7 B2 C1
2472,[17175],Y1Ni1.34Pd0.66B2C1,Y1Ni1.34Pd0.66B2C1,"{'B': 2.0, 'C': 1.0, 'Ni': 1.34, 'Pd': 0.66, 'Y': 1.0}",10.4,10.4,0.0,1,Y1 Ni1.34 Pd0.66 B2 C1
2473,[17176],Y1Ni1.4Pd0.6B2C1,Y1Ni1.4Pd0.6B2C1,"{'B': 2.0, 'C': 1.0, 'Ni': 1.4, 'Pd': 0.6000000000000001, 'Y': 1.0}",9.92,9.92,0.0,1,Y1 Ni1.4 Pd0.6 B2 C1
2474,[17177],Y1Ni1.46Pd0.54B2C1,Y1Ni1.46Pd0.54B2C1,"{'B': 2.0, 'C': 1.0, 'Ni': 1.46, 'Pd': 0.54, 'Y': 1.0}",10.1,10.1,0.0,1,Y1 Ni1.46 Pd0.54 B2 C1
2475,[15459],Y1Ni1.5Pd0.5B2C1,Y1Ni1.5Pd0.5B2C1,"{'B': 2.0, 'C': 1.0, 'Ni': 1.5, 'Pd': 0.5, 'Y': 1.0}",12.1,12.1,0.0,1,Y1 Ni1.5 Pd0.5 B2 C1
2476,[17178],Y1Ni1.54Pd0.46B2C1,Y1Ni1.54Pd0.46B2C1,"{'B': 2.0, 'C': 1.0, 'Ni': 1.54, 'Pd': 0.46, 'Y': 1.0}",10.3,10.3,0.0,1,Y1 Ni1.54 Pd0.46 B2 C1
2477,[17043],Y1Ni1.6Pt0.4B2C1,Y1Ni1.6Pt0.4B2C1,"{'B': 2.0, 'C': 1.0, 'Ni': 1.6, 'Pt': 0.4, 'Y': 1.0}",12.1,12.1,0.0,1,Y1 Ni1.6 Pt0.4 B2 C1
2478,[17179],Y1Ni1.7Pd0.3B2C1,Y1Ni1.7Pd0.3B2C1,"{'B': 2.0, 'C': 1.0, 'Ni': 1.7000000000000002, 'Pd': 0.30000000000000004, 'Y': 1.0}",10.7,10.7,0.0,1,Y1 Ni1.7 Pd0.3 B2 C1
2479,[15458],Y1Ni1.8Pd0.2B2C1,Y1Ni1.8Pd0.2B2C1,"{'B': 2.0, 'C': 1.0, 'Ni': 1.8, 'Pd': 0.2, 'Y': 1.0}",14.0,14.0,0.0,1,Y1 Ni1.8 Pd0.2 B2 C1
2480,[17180],Y1Ni1.82Pd0.18B2C1,Y1Ni1.82Pd0.18B2C1,"{'B': 2.0, 'C': 1.0, 'Ni': 1.82, 'Pd': 0.18, 'Y': 1.0}",11.8,11.8,0.0,1,Y1 Ni1.82 Pd0.18 B2 C1
2481,[17042],Y1Ni1.9Pt0.1B2C1,Y1Ni1.9Pt0.1B2C1,"{'B': 2.0, 'C': 1.0, 'Ni': 1.9, 'Pt': 0.1, 'Y': 1.0}",13.7,13.7,0.0,1,Y1 Ni1.9 Pt0.1 B2 C1
2482,[15449],Y1Ni1.9Ru0.1B2C1,Y1Ni1.9Ru0.1B2C1,"{'B': 2.0, 'C': 1.0, 'Ni': 1.9, 'Ru': 0.1, 'Y': 1.0}",7.0,7.0,0.0,1,Y1 Ni1.9 Ru0.1 B2 C1
2483,[15448],Y1Ni1.94Ru0.06B2C1,Y1Ni1.94Ru0.06B2C1,"{'B': 2.0, 'C': 1.0, 'Ni': 1.94, 'Ru': 0.06, 'Y': 1.0}",8.7,8.7,0.0,1,Y1 Ni1.94 Ru0.06 B2 C1
2484,[15447],Y1Ni1.98Ru0.02B2C1,Y1Ni1.98Ru0.02B2C1,"{'B': 2.0, 'C': 1.0, 'Ni': 1.98, 'Ru': 0.02, 'Y': 1.0}",12.8,12.8,0.0,1,Y1 Ni1.98 Ru0.02 B2 C1
2485,"[16635, 21607]",Y0.95Pr0.05Ni2B2C1,Y0.95Pr0.05Ni2B2C1,"{'B': 2.0, 'C': 1.0, 'Ni': 2.0, 'Pr': 0.05, 'Y': 0.9500000000000001}",14.1,14.05,0.05,2,Y0.95 Pr0.05 Ni2 B2 C1
2486,[21606],Y0.9Pr0.1Ni2B2C1,Y0.9Pr0.1Ni2B2C1,"{'B': 2.0, 'C': 1.0, 'Ni': 2.0, 'Pr': 0.1, 'Y': 0.9}",11.2,11.2,0.0,1,Y0.9 Pr0.1 Ni2 B2 C1
2487,[16636],Y0.85Pr0.15Ni2B2C1,Y0.85Pr0.15Ni2B2C1,"{'B': 2.0, 'C': 1.0, 'Ni': 2.0, 'Pr': 0.15, 'Y': 0.85}",12.0,12.0,0.0,1,Y0.85 Pr0.15 Ni2 B2 C1
2488,"[16634, 21605]",Y0.8Pr0.2Ni2B2C1,Y0.8Pr0.2Ni2B2C1,"{'B': 2.0, 'C': 1.0, 'Ni': 2.0, 'Pr': 0.2, 'Y': 0.8}",8.74,8.68,0.06,2,Y0.8 Pr0.2 Ni2 B2 C1
2489,[16637],Y0.75Pr0.25Ni2B2C1,Y0.75Pr0.25Ni2B2C1,"{'B': 2.0, 'C': 1.0, 'Ni': 2.0, 'Pr': 0.25, 'Y': 0.75}",7.7,7.7,0.0,1,Y0.75 Pr0.25 Ni2 B2 C1
2490,[17501],Sc0.7Y0.3Ni2B2C1,Sc0.7Y0.3Ni2B2C1,"{'B': 2.0, 'C': 1.0, 'Ni': 2.0, 'Sc': 0.7000000000000001, 'Y': 0.30000000000000004}",14.5,14.5,0.0,1,Sc0.7 Y0.3 Ni2 B2 C1
2491,[17500],Sc0.8Y0.2Ni2B2C1,Sc0.8Y0.2Ni2B2C1,"{'B': 2.0, 'C': 1.0, 'Ni': 2.0, 'Sc': 0.8, 'Y': 0.2}",14.8,14.8,0.0,1,Sc0.8 Y0.2 Ni2 B2 C1
2492,[17499],Sc0.9Y0.1Ni2B2C1,Sc0.9Y0.1Ni2B2C1,"{'B': 2.0, 'C': 1.0, 'Ni': 2.0, 'Sc': 0.9, 'Y': 0.1}",15.1,15.1,0.0,1,Sc0.9 Y0.1 Ni2 B2 C1
2493,"[16428, 16430]",Sc1Ni2B2C1,Sc1Ni2B2C1,"{'B': 2.0, 'C': 1.0, 'Ni': 2.0, 'Sc': 1.0}",16.5,16.25,0.25,2,Sc1 Ni2 B2 C1
2494,[16148],Y0.95Tb0.05Ni2B2C1,Y0.95Tb0.05Ni2B2C1,"{'B': 2.0, 'C': 1.0, 'Ni': 2.0, 'Tb': 0.05, 'Y': 0.9500000000000001}",14.42,14.42,0.0,1,Y0.95 Tb0.05 Ni2 B2 C1
2495,"[15573, 16149]",Y0.9Tb0.1Ni2B2C1,Y0.9Tb0.1Ni2B2C1,"{'B': 2.0, 'C': 1.0, 'Ni': 2.0, 'Tb': 0.1, 'Y': 0.9}",13.48,13.09,0.39,2,Y0.9 Tb0.1 Ni2 B2 C1
2496,[16150],Y0.85Tb0.15Ni2B2C1,Y0.85Tb0.15Ni2B2C1,"{'B': 2.0, 'C': 1.0, 'Ni': 2.0, 'Tb': 0.15, 'Y': 0.85}",12.54,12.54,0.0,1,Y0.85 Tb0.15 Ni2 B2 C1
2497,"[15574, 16151]",Y0.8Tb0.2Ni2B2C1,Y0.8Tb0.2Ni2B2C1,"{'B': 2.0, 'C': 1.0, 'Ni': 2.0, 'Tb': 0.2, 'Y': 0.8}",11.43,11.215,0.215,2,Y0.8 Tb0.2 Ni2 B2 C1
2498,[16152],Y0.75Tb0.25Ni2B2C1,Y0.75Tb0.25Ni2B2C1,"{'B': 2.0, 'C': 1.0, 'Ni': 2.0, 'Tb': 0.25, 'Y': 0.75}",10.02,10.02,0.0,1,Y0.75 Tb0.25 Ni2 B2 C1
2499,"[15575, 16153]",Y0.7Tb0.3Ni2B2C1,Y0.7Tb0.3Ni2B2C1,"{'B': 2.0, 'C': 1.0, 'Ni': 2.0, 'Tb': 0.30000000000000004, 'Y': 0.7000000000000001}",9.03,8.565,0.465,2,Y0.7 Tb0.3 Ni2 B2 C1
2500,[15576],Y0.65Tb0.35Ni2B2C1,Y0.65Tb0.35Ni2B2C1,"{'B': 2.0, 'C': 1.0, 'Ni': 2.0, 'Tb': 0.35000000000000003, 'Y': 0.65}",4.6,4.6,0.0,1,Y0.65 Tb0.35 Ni2 B2 C1
2501,"[15577, 16154]",Y0.6Tb0.4Ni2B2C1,Y0.6Tb0.4Ni2B2C1,"{'B': 2.0, 'C': 1.0, 'Ni': 2.0, 'Tb': 0.4, 'Y': 0.6000000000000001}",5.04,3.52,1.52,2,Y0.6 Tb0.4 Ni2 B2 C1
2502,"[15431, 15440, 15556, 15623, 15629, 15661, 15736, 15846, 16539, 17078, 17079, 20251, 21747]",Tm1Ni2B2C1,Tm1Ni2B2C1,"{'B': 2.0, 'C': 1.0, 'Ni': 2.0, 'Tm': 1.0}",11.1,10.7915384615,0.31008302,13,Tm1 Ni2 B2 C1
2503,"[8240, 15418, 15434, 15437, 15439, 15441, 15454, 15464, 15517, 15552, 15563, 15572, 15592, 15594, 15595, 15598, 15612, 15615, 15626, 15683, 15688, 15726, 16141, 16147, 16214, 16422, 16541, 16588, 16633, 16705, 16706, 17028, 17041, 17047, 17053, 17096, 17105, 17106, 17107, 17181, 17317, 17319, 17509, 18378, 21608, 22013, 22269]",Y1Ni2B2C1,Y1Ni2B2C1,"{'B': 2.0, 'C': 1.0, 'Ni': 2.0, 'Y': 1.0}",16.18,15.104893617,0.9618242250000001,47,Y1 Ni2 B2 C1
2504,"[15693, 15728]",Y1Pd2B2C1,Y1Pd2B2C1,"{'B': 2.0, 'C': 1.0, 'Pd': 2.0, 'Y': 1.0}",22.6,22.6,0.0,2,Y1 Pd2 B2 C1
2505,"[12001, 15421, 20121]",Pr1Pt2B2C1,Pr1Pt2B2C1,"{'B': 2.0, 'C': 1.0, 'Pr': 1.0, 'Pt': 2.0}",6.0,6.0,0.0,3,Pr1 Pt2 B2 C1
2506,[15422],Y1Pt2B2C1,Y1Pt2B2C1,"{'B': 2.0, 'C': 1.0, 'Pt': 2.0, 'Y': 1.0}",10.5,10.5,0.0,1,Y1 Pt2 B2 C1
2507,[18907],Lu1B2C2,Lu1B2C2,"{'B': 2.0, 'C': 2.0, 'Lu': 1.0}",2.4,2.4,0.0,1,Lu1 B2 C2
2508,[18906],Y1B2C2,Y1B2C2,"{'B': 2.0, 'C': 2.0, 'Y': 1.0}",3.6,3.6,0.0,1,Y1 B2 C2
2509,[19106],La5B2C6,La5B2C6,"{'B': 2.0, 'C': 6.0, 'La': 5.0}",6.9,6.9,0.0,1,La5 B2 C6
2510,[16756],Ca0.67Pt3B2,Ca0.67Pt3B2,"{'B': 2.0, 'Ca': 0.67, 'Pt': 3.0}",1.57,1.57,0.0,1,Ca0.67 Pt3 B2
2511,[24635],Ca3Rh8B2,Ca3Rh8B2,"{'B': 2.0, 'Ca': 3.0, 'Rh': 8.0}",4.0,4.0,0.0,1,Ca3 Rh8 B2
2512,[17350],La0.9989Ce0.0011Rh3B2,La0.9989Ce0.0011Rh3B2,"{'B': 2.0, 'Ce': 0.0011, 'La': 0.9989, 'Rh': 3.0}",1.67,1.67,0.0,1,La0.9989 Ce0.0011 Rh3 B2
2513,[17351],La0.9978Ce0.0022Rh3B2,La0.9978Ce0.0022Rh3B2,"{'B': 2.0, 'Ce': 0.0022, 'La': 0.9978, 'Rh': 3.0}",1.07,1.07,0.0,1,La0.9978 Ce0.0022 Rh3 B2
2514,[17352],La0.9973Ce0.0027Rh3B2,La0.9973Ce0.0027Rh3B2,"{'B': 2.0, 'Ce': 0.0027, 'La': 0.9973000000000001, 'Rh': 3.0}",0.38,0.38,0.0,1,La0.9973 Ce0.0027 Rh3 B2
2515,[22276],La2.95Ce0.05Ni2B2N2.7,La2.95Ce0.05Ni2B2N2.7,"{'B': 2.0, 'Ce': 0.05, 'La': 2.95, 'N': 2.7, 'Ni': 2.0}",10.2,10.2,0.0,1,La2.95 Ce0.05 Ni2 B2 N2.7
2516,[22277],La2.9Ce0.1Ni2B2N2.7,La2.9Ce0.1Ni2B2N2.7,"{'B': 2.0, 'Ce': 0.1, 'La': 2.9, 'N': 2.7, 'Ni': 2.0}",4.9,4.9,0.0,1,La2.9 Ce0.1 Ni2 B2 N2.7
2517,[17353],Ce1Os3B2,Ce1Os3B2,"{'B': 2.0, 'Ce': 1.0, 'Os': 3.0}",3.5,3.5,0.0,1,Ce1 Os3 B2
2518,[17354],Ce1Ru3B2,Ce1Ru3B2,"{'B': 2.0, 'Ce': 1.0, 'Ru': 3.0}",1.1,1.1,0.0,1,Ce1 Ru3 B2
2519,"[16642, 20531]",Mg0.99Co0.01B2,Mg0.99Co0.01B2,"{'B': 2.0, 'Co': 0.01, 'Mg': 0.99}",38.7,37.1,1.6,2,Mg0.99 Co0.01 B2
2520,[20532],Mg0.98Co0.02B2,Mg0.98Co0.02B2,"{'B': 2.0, 'Co': 0.02, 'Mg': 0.98}",37.4,37.4,0.0,1,Mg0.98 Co0.02 B2
2521,[20533],Mg0.97Co0.03B2,Mg0.97Co0.03B2,"{'B': 2.0, 'Co': 0.03, 'Mg': 0.97}",36.2,36.2,0.0,1,Mg0.97 Co0.03 B2
2522,[16643],Mg0.9Co0.1B2,Mg0.9Co0.1B2,"{'B': 2.0, 'Co': 0.1, 'Mg': 0.9}",34.5,34.5,0.0,1,Mg0.9 Co0.1 B2
2523,[16644],Mg0.75Co0.25B2,Mg0.75Co0.25B2,"{'B': 2.0, 'Co': 0.25, 'Mg': 0.75}",34.0,34.0,0.0,1,Mg0.75 Co0.25 B2
2524,[16645],Mg0.5Co0.5B2,Mg0.5Co0.5B2,"{'B': 2.0, 'Co': 0.5, 'Mg': 0.5}",31.5,31.5,0.0,1,Mg0.5 Co0.5 B2
2525,[22346],La1Co1.4Fe0.6B2,La1Co1.4Fe0.6B2,"{'B': 2.0, 'Co': 1.4, 'Fe': 0.6000000000000001, 'La': 1.0}",4.0,4.0,0.0,1,La1 Co1.4 Fe0.6 B2
2526,"[22345, 23643]",La0.9Y0.1Co2B2,La0.9Y0.1Co2B2,"{'B': 2.0, 'Co': 2.0, 'La': 0.9, 'Y': 0.1}",4.25,4.175,0.075,2,La0.9 Y0.1 Co2 B2
2527,[12723],Mg0.99Cr0.01B2,Mg0.99Cr0.01B2,"{'B': 2.0, 'Cr': 0.01, 'Mg': 0.99}",36.7,36.7,0.0,1,Mg0.99 Cr0.01 B2
2528,[12724],Mg0.98Cr0.02B2,Mg0.98Cr0.02B2,"{'B': 2.0, 'Cr': 0.02, 'Mg': 0.98}",35.3,35.3,0.0,1,Mg0.98 Cr0.02 B2
2529,[12725],Mg0.97Cr0.03B2,Mg0.97Cr0.03B2,"{'B': 2.0, 'Cr': 0.03, 'Mg': 0.97}",35.1,35.1,0.0,1,Mg0.97 Cr0.03 B2
2530,[17141],Mg0.996Cu0.004B2,Mg0.996Cu0.004B2,"{'B': 2.0, 'Cu': 0.004, 'Mg': 0.996}",38.11,38.11,0.0,1,Mg0.996 Cu0.004 B2
2531,[17142],Mg0.989Cu0.011B2,Mg0.989Cu0.011B2,"{'B': 2.0, 'Cu': 0.011, 'Mg': 0.989}",38.05,38.05,0.0,1,Mg0.989 Cu0.011 B2
2532,[17143],Mg0.982Cu0.018B2,Mg0.982Cu0.018B2,"{'B': 2.0, 'Cu': 0.018000000000000002, 'Mg': 0.982}",37.8,37.8,0.0,1,Mg0.982 Cu0.018 B2
2533,[17144],Mg0.97Cu0.03B2,Mg0.97Cu0.03B2,"{'B': 2.0, 'Cu': 0.03, 'Mg': 0.97}",37.58,37.58,0.0,1,Mg0.97 Cu0.03 B2
2534,[12178],Mg0.95Cu0.05B2,Mg0.95Cu0.05B2,"{'B': 2.0, 'Cu': 0.05, 'Mg': 0.9500000000000001}",37.75,37.75,0.0,1,Mg0.95 Cu0.05 B2
2535,[17198],Mg0.9Cu0.1B2,Mg0.9Cu0.1B2,"{'B': 2.0, 'Cu': 0.1, 'Mg': 0.9}",38.6,38.6,0.0,1,Mg0.9 Cu0.1 B2
2536,[17199],Mg0.8Cu0.2B2,Mg0.8Cu0.2B2,"{'B': 2.0, 'Cu': 0.2, 'Mg': 0.8}",38.6,38.6,0.0,1,Mg0.8 Cu0.2 B2
2537,[21651],Lu0.9Dy0.1Ru1B2,Lu0.9Dy0.1Ru1B2,"{'B': 2.0, 'Dy': 0.1, 'Lu': 0.9, 'Ru': 1.0}",7.34,7.34,0.0,1,Lu0.9 Dy0.1 Ru1 B2
2538,[21656],Lu0.8Dy0.2Ru1B2,Lu0.8Dy0.2Ru1B2,"{'B': 2.0, 'Dy': 0.2, 'Lu': 0.8, 'Ru': 1.0}",5.07,5.07,0.0,1,Lu0.8 Dy0.2 Ru1 B2
2539,[21653],Lu0.9Er0.1Ru1B2,Lu0.9Er0.1Ru1B2,"{'B': 2.0, 'Er': 0.1, 'Lu': 0.9, 'Ru': 1.0}",8.77,8.77,0.0,1,Lu0.9 Er0.1 Ru1 B2
2540,[21640],Lu0.85Er0.15Ru1B2,Lu0.85Er0.15Ru1B2,"{'B': 2.0, 'Er': 0.15, 'Lu': 0.85, 'Ru': 1.0}",8.86,8.86,0.0,1,Lu0.85 Er0.15 Ru1 B2
2541,[21658],Lu0.8Er0.2Ru1B2,Lu0.8Er0.2Ru1B2,"{'B': 2.0, 'Er': 0.2, 'Lu': 0.8, 'Ru': 1.0}",7.85,7.85,0.0,1,Lu0.8 Er0.2 Ru1 B2
2542,[21641],Lu0.65Er0.35Ru1B2,Lu0.65Er0.35Ru1B2,"{'B': 2.0, 'Er': 0.35000000000000003, 'Lu': 0.65, 'Ru': 1.0}",6.94,6.94,0.0,1,Lu0.65 Er0.35 Ru1 B2
2543,[21642],Lu0.6Er0.4Ru1B2,Lu0.6Er0.4Ru1B2,"{'B': 2.0, 'Er': 0.4, 'Lu': 0.6000000000000001, 'Ru': 1.0}",6.295,6.295,0.0,1,Lu0.6 Er0.4 Ru1 B2
2544,[21643],Lu0.55Er0.45Ru1B2,Lu0.55Er0.45Ru1B2,"{'B': 2.0, 'Er': 0.45, 'Lu': 0.55, 'Ru': 1.0}",5.26,5.26,0.0,1,Lu0.55 Er0.45 Ru1 B2
2545,"[11801, 19975]",Mg0.997Fe0.003B2,Mg0.997Fe0.003B2,"{'B': 2.0, 'Fe': 0.003, 'Mg': 0.997}",37.9,37.8,0.1,2,Mg0.997 Fe0.003 B2
2546,"[11802, 19976]",Mg0.994Fe0.006B2,Mg0.994Fe0.006B2,"{'B': 2.0, 'Fe': 0.006, 'Mg': 0.994}",37.0,35.6,1.4,2,Mg0.994 Fe0.006 B2
2547,"[21899, 21900]",Mg0.99Fe0.01B2,Mg0.99Fe0.01B2,"{'B': 2.0, 'Fe': 0.01, 'Mg': 0.99}",38.2,34.7,3.5,2,Mg0.99 Fe0.01 B2
2548,"[11803, 19977]",Mg0.988Fe0.012B2,Mg0.988Fe0.012B2,"{'B': 2.0, 'Fe': 0.012, 'Mg': 0.988}",34.9,33.45,1.45,2,Mg0.988 Fe0.012 B2
2549,"[11804, 16647, 19978]",Mg0.97Fe0.03B2,Mg0.97Fe0.03B2,"{'B': 2.0, 'Fe': 0.03, 'Mg': 0.97}",36.0,32.9666666667,2.44994331,3,Mg0.97 Fe0.03 B2
2550,[21901],Mg0.95Fe0.05B2,Mg0.95Fe0.05B2,"{'B': 2.0, 'Fe': 0.05, 'Mg': 0.9500000000000001}",29.5,29.5,0.0,1,Mg0.95 Fe0.05 B2
2551,[16648],Mg0.9Fe0.1B2,Mg0.9Fe0.1B2,"{'B': 2.0, 'Fe': 0.1, 'Mg': 0.9}",34.0,34.0,0.0,1,Mg0.9 Fe0.1 B2
2552,[16649],Mg0.75Fe0.25B2,Mg0.75Fe0.25B2,"{'B': 2.0, 'Fe': 0.25, 'Mg': 0.75}",32.0,32.0,0.0,1,Mg0.75 Fe0.25 B2
2553,[21649],Lu0.9Gd0.1Ru1B2,Lu0.9Gd0.1Ru1B2,"{'B': 2.0, 'Gd': 0.1, 'Lu': 0.9, 'Ru': 1.0}",6.4,6.4,0.0,1,Lu0.9 Gd0.1 Ru1 B2
2554,[21655],Lu0.8Gd0.2Ru1B2,Lu0.8Gd0.2Ru1B2,"{'B': 2.0, 'Gd': 0.2, 'Lu': 0.8, 'Ru': 1.0}",4.84,4.84,0.0,1,Lu0.8 Gd0.2 Ru1 B2
2555,[24482],Ta5Ge1B2,Ta5Ge1B2,"{'B': 2.0, 'Ge': 1.0, 'Ta': 5.0}",3.8,3.8,0.0,1,Ta5 Ge1 B2
2556,[25221],Hf0.97V0.03B2,Hf0.97V0.03B2,"{'B': 2.0, 'Hf': 0.97, 'V': 0.03}",7.31,7.31,0.0,1,Hf0.97 V0.03 B2
2557,[21652],Lu0.9Ho0.1Ru1B2,Lu0.9Ho0.1Ru1B2,"{'B': 2.0, 'Ho': 0.1, 'Lu': 0.9, 'Ru': 1.0}",7.53,7.53,0.0,1,Lu0.9 Ho0.1 Ru1 B2
2558,[21657],Lu0.8Ho0.2Ru1B2,Lu0.8Ho0.2Ru1B2,"{'B': 2.0, 'Ho': 0.2, 'Lu': 0.8, 'Ru': 1.0}",6.46,6.46,0.0,1,Lu0.8 Ho0.2 Ru1 B2
2559,[17248],Mg0.98Ir0.02B2,Mg0.98Ir0.02B2,"{'B': 2.0, 'Ir': 0.02, 'Mg': 0.98}",33.2,33.2,0.0,1,Mg0.98 Ir0.02 B2
2560,[17249],Mg0.94Ir0.06B2,Mg0.94Ir0.06B2,"{'B': 2.0, 'Ir': 0.06, 'Mg': 0.9400000000000001}",28.1,28.1,0.0,1,Mg0.94 Ir0.06 B2
2561,[17250],Mg0.88Ir0.12B2,Mg0.88Ir0.12B2,"{'B': 2.0, 'Ir': 0.12, 'Mg': 0.88}",18.0,18.0,0.0,1,Mg0.88 Ir0.12 B2
2562,[20288],Mo2Ir1B2,Mo2Ir1B2,"{'B': 2.0, 'Ir': 1.0, 'Mo': 2.0}",3.6,3.6,0.0,1,Mo2 Ir1 B2
2563,[20287],V2Ir1B2,V2Ir1B2,"{'B': 2.0, 'Ir': 1.0, 'V': 2.0}",1.12,1.12,0.0,1,V2 Ir1 B2
2564,"[16744, 25115]",La1Ir3B2,La1Ir3B2,"{'B': 2.0, 'Ir': 3.0, 'La': 1.0}",1.65,1.65,0.0,2,La1 Ir3 B2
2565,"[16743, 25112]",Y0.5La0.5Rh3B2,Y0.5La0.5Rh3B2,"{'B': 2.0, 'La': 0.5, 'Rh': 3.0, 'Y': 0.5}",1.88,1.88,0.0,2,Y0.5 La0.5 Rh3 B2
2566,"[16742, 17349, 25111]",La1Rh3B2,La1Rh3B2,"{'B': 2.0, 'La': 1.0, 'Rh': 3.0}",2.8200000000000003,2.6533333333,0.2357022604,3,La1 Rh3 B2
2567,[22275],La3Ni2B2N2.7,La3Ni2B2N2.7,"{'B': 2.0, 'La': 3.0, 'N': 2.7, 'Ni': 2.0}",12.5,12.5,0.0,1,La3 Ni2 B2 N2.7
2568,"[15423, 15610, 15692, 16146, 24102]",La3Ni2B2N3,La3Ni2B2N3,"{'B': 2.0, 'La': 3.0, 'N': 3.0, 'Ni': 2.0}",14.9,12.886,1.1115682615,5,La3 Ni2 B2 N3
2569,[20493],Mg0.95Li0.05B2,Mg0.95Li0.05B2,"{'B': 2.0, 'Li': 0.05, 'Mg': 0.9500000000000001}",38.25,38.25,0.0,1,Mg0.95 Li0.05 B2
2570,[16413],Mg0.93Li0.07B2,Mg0.93Li0.07B2,"{'B': 2.0, 'Li': 0.07, 'Mg': 0.93}",37.8,37.8,0.0,1,Mg0.93 Li0.07 B2
2571,[20495],Mg0.92Li0.08B2,Mg0.92Li0.08B2,"{'B': 2.0, 'Li': 0.08, 'Mg': 0.92}",38.0,38.0,0.0,1,Mg0.92 Li0.08 B2
2572,"[16129, 16417, 20494]",Mg0.9Li0.1B2,Mg0.9Li0.1B2,"{'B': 2.0, 'Li': 0.1, 'Mg': 0.9}",37.8,36.9166666667,0.9800793619,3,Mg0.9 Li0.1 B2
2573,[20496],Mg0.89Li0.11B2,Mg0.89Li0.11B2,"{'B': 2.0, 'Li': 0.11, 'Mg': 0.89}",35.3,35.3,0.0,1,Mg0.89 Li0.11 B2
2574,"[16414, 16418]",Mg0.85Li0.15B2,Mg0.85Li0.15B2,"{'B': 2.0, 'Li': 0.15, 'Mg': 0.85}",37.5,36.6,0.9,2,Mg0.85 Li0.15 B2
2575,[16419],Mg0.8Li0.2B2,Mg0.8Li0.2B2,"{'B': 2.0, 'Li': 0.2, 'Mg': 0.8}",34.0,34.0,0.0,1,Mg0.8 Li0.2 B2
2576,[16420],Mg0.75Li0.25B2,Mg0.75Li0.25B2,"{'B': 2.0, 'Li': 0.25, 'Mg': 0.75}",33.7,33.7,0.0,1,Mg0.75 Li0.25 B2
2577,"[16130, 16421]",Mg0.7Li0.3B2,Mg0.7Li0.3B2,"{'B': 2.0, 'Li': 0.30000000000000004, 'Mg': 0.7000000000000001}",32.1,31.55,0.55,2,Mg0.7 Li0.3 B2
2578,[20413],Li2Pd3B1B1,Li2Pd3B1B1,"{'B': 2.0, 'Li': 2.0, 'Pd': 3.0}",8.19,8.19,0.0,1,Li2 Pd3 B2
2579,[21648],Lu0.55Tm0.45Ru1B2,Lu0.55Tm0.45Ru1B2,"{'B': 2.0, 'Lu': 0.55, 'Ru': 1.0, 'Tm': 0.45}",2.94,2.94,0.0,1,Lu0.55 Tm0.45 Ru1 B2
2580,[21647],Lu0.6Tm0.4Ru1B2,Lu0.6Tm0.4Ru1B2,"{'B': 2.0, 'Lu': 0.6000000000000001, 'Ru': 1.0, 'Tm': 0.4}",4.31,4.31,0.0,1,Lu0.6 Tm0.4 Ru1 B2
2581,"[21646, 21659]",Lu0.8Tm0.2Ru1B2,Lu0.8Tm0.2Ru1B2,"{'B': 2.0, 'Lu': 0.8, 'Ru': 1.0, 'Tm': 0.2}",7.31,7.295,0.015,2,Lu0.8 Tm0.2 Ru1 B2
2582,[21650],Lu0.9Tb0.1Ru1B2,Lu0.9Tb0.1Ru1B2,"{'B': 2.0, 'Lu': 0.9, 'Ru': 1.0, 'Tb': 0.1}",4.76,4.76,0.0,1,Lu0.9 Tb0.1 Ru1 B2
2583,[21654],Lu0.9Tm0.1Ru1B2,Lu0.9Tm0.1Ru1B2,"{'B': 2.0, 'Lu': 0.9, 'Ru': 1.0, 'Tm': 0.1}",8.72,8.72,0.0,1,Lu0.9 Tm0.1 Ru1 B2
2584,"[16737, 18905]",Lu1Os1B2,Lu1Os1B2,"{'B': 2.0, 'Lu': 1.0, 'Os': 1.0}",2.66,2.66,0.0,2,Lu1 Os1 B2
2585,"[16740, 20872, 25113]",Lu1Os3B2,Lu1Os3B2,"{'B': 2.0, 'Lu': 1.0, 'Os': 3.0}",4.69,4.6433333333,0.0329983165,3,Lu1 Os3 B2
2586,"[16734, 18902, 20870, 21637, 21639, 21644, 21645, 25507]",Lu1Ru1B2,Lu1Ru1B2,"{'B': 2.0, 'Lu': 1.0, 'Ru': 1.0}",10.6,10.00625,0.4982955323,8,Lu1 Ru1 B2
2587,[19943],Nb0.9Mg0.1B2,Nb0.9Mg0.1B2,"{'B': 2.0, 'Mg': 0.1, 'Nb': 0.9}",4.5,4.5,0.0,1,Nb0.9 Mg0.1 B2
2588,[19944],Nb0.75Mg0.25B2,Nb0.75Mg0.25B2,"{'B': 2.0, 'Mg': 0.25, 'Nb': 0.75}",4.5,4.5,0.0,1,Nb0.75 Mg0.25 B2
2589,[16490],Mg0.4Ti0.6B2,Mg0.4Ti0.6B2,"{'B': 2.0, 'Mg': 0.4, 'Ti': 0.6000000000000001}",37.6,37.6,0.0,1,Mg0.4 Ti0.6 B2
2590,[17193],B2Mg0.5,B2Mg0.5,"{'B': 2.0, 'Mg': 0.5}",36.0,36.0,0.0,1,B2 Mg0.5
2591,[17192],B2Mg0.6,B2Mg0.6,"{'B': 2.0, 'Mg': 0.6000000000000001}",36.9,36.9,0.0,1,B2 Mg0.6
2592,[16489],Mg0.6Ti0.4B2,Mg0.6Ti0.4B2,"{'B': 2.0, 'Mg': 0.6000000000000001, 'Ti': 0.4}",37.5,37.5,0.0,1,Mg0.6 Ti0.4 B2
2593,[17191],B2Mg0.7,B2Mg0.7,"{'B': 2.0, 'Mg': 0.7000000000000001}",37.2,37.2,0.0,1,B2 Mg0.7
2594,[18376],Mg0.73Sc0.27B2,Mg0.73Sc0.27B2,"{'B': 2.0, 'Mg': 0.73, 'Sc': 0.27}",6.0,6.0,0.0,1,Mg0.73 Sc0.27 B2
2595,[17190],B2Mg0.8,B2Mg0.8,"{'B': 2.0, 'Mg': 0.8}",38.0,38.0,0.0,1,B2 Mg0.8
2596,[16412],Mg0.8Na0.2B2,Mg0.8Na0.2B2,"{'B': 2.0, 'Mg': 0.8, 'Na': 0.2}",38.0,38.0,0.0,1,Mg0.8 Na0.2 B2
2597,[16488],Mg0.8Ti0.2B2,Mg0.8Ti0.2B2,"{'B': 2.0, 'Mg': 0.8, 'Ti': 0.2}",37.8,37.8,0.0,1,Mg0.8 Ti0.2 B2
2598,[17197],Mg0.8Zn0.2B2,Mg0.8Zn0.2B2,"{'B': 2.0, 'Mg': 0.8, 'Zn': 0.2}",38.4,38.4,0.0,1,Mg0.8 Zn0.2 B2
2599,"[16579, 16995]",Mg0.8Zr0.2B2,Mg0.8Zr0.2B2,"{'B': 2.0, 'Mg': 0.8, 'Zr': 0.2}",37.3,37.3,0.0,2,Mg0.8 Zr0.2 B2
2600,[16411],Mg0.85Na0.15B2,Mg0.85Na0.15B2,"{'B': 2.0, 'Mg': 0.85, 'Na': 0.15}",38.0,38.0,0.0,1,Mg0.85 Na0.15 B2
2601,[18375],Mg0.88Sc0.12B2,Mg0.88Sc0.12B2,"{'B': 2.0, 'Mg': 0.88, 'Sc': 0.12}",30.0,30.0,0.0,1,Mg0.88 Sc0.12 B2
2602,[17189],B2Mg0.9,B2Mg0.9,"{'B': 2.0, 'Mg': 0.9}",38.2,38.2,0.0,1,B2 Mg0.9
2603,[11611],Mg0.9Pb0.1B2,Mg0.9Pb0.1B2,"{'B': 2.0, 'Mg': 0.9, 'Pb': 0.1}",34.0,34.0,0.0,1,Mg0.9 Pb0.1 B2