,sc_id,supercon_formula,cleaned_formula,material_dict,highest_Tc,average_Tc,std_Tc,entry_count,composition
3143,[116],Sm0.2Ba0.8Cu1O3-Y,Sm0.2Ba0.8Cu1O3,"{'Ba': 0.8, 'Cu': 1.0, 'O': 3.0, 'Sm': 0.2}",62.5,62.5,0.0,1,Sm0.2 Ba0.8 Cu1 O3
3144,"[264, 266]",Y1.2Ba0.8Cu1O4,Y1.2Ba0.8Cu1O4,"{'Ba': 0.8, 'Cu': 1.0, 'O': 4.0, 'Y': 1.2}",94.5,84.75,9.75,2,Y1.2 Ba0.8 Cu1 O4
3145,[1209],Y1Ba0.8Sr1.2Cu3O6.8,Y1Ba0.8Sr1.2Cu3O6.8,"{'Ba': 0.8, 'Cu': 3.0, 'O': 6.8, 'Sr': 1.2, 'Y': 1.0}",82.0,82.0,0.0,1,Y1 Ba0.8 Sr1.2 Cu3 O6.8
3146,[8000],Y0.6Pr0.4Ba0.8Sr1.2Cu3O6.89,Y0.6Pr0.4Ba0.8Sr1.2Cu3O6.89,"{'Ba': 0.8, 'Cu': 3.0, 'O': 6.89, 'Pr': 0.4, 'Sr': 1.2, 'Y': 0.6000000000000001}",49.0,49.0,0.0,1,Y0.6 Pr0.4 Ba0.8 Sr1.2 Cu3 O6.89
3147,[10382],Y1Ba0.8Sr1.2Cu3O7-z,Y1Ba0.8Sr1.2Cu3O7,"{'Ba': 0.8, 'Cu': 3.0, 'O': 7.0, 'Sr': 1.2, 'Y': 1.0}",78.0,78.0,0.0,1,Y1 Ba0.8 Sr1.2 Cu3 O7
3148,[24367],Ba0.8Fe2Se2,Ba0.8Fe2Se2,"{'Ba': 0.8, 'Fe': 2.0, 'Se': 2.0}",39.0,39.0,0.0,1,Ba0.8 Fe2 Se2
3149,[23654],Ba0.8K0.2Ti2Sb2O1,Ba0.8K0.2Ti2Sb2O1,"{'Ba': 0.8, 'K': 0.2, 'O': 1.0, 'Sb': 2.0, 'Ti': 2.0}",3.0,3.0,0.0,1,Ba0.8 K0.2 Ti2 Sb2 O1
3150,[23603],Ba0.8Rb0.2Ti2Sb2O1,Ba0.8Rb0.2Ti2Sb2O1,"{'Ba': 0.8, 'O': 1.0, 'Rb': 0.2, 'Sb': 2.0, 'Ti': 2.0}",6.19,6.19,0.0,1,Ba0.8 Rb0.2 Ti2 Sb2 O1
3151,[24329],Ba0.82K0.18Bi0.53Pb0.47,Ba0.82K0.18Bi0.53Pb0.47,"{'Ba': 0.8200000000000001, 'Bi': 0.53, 'K': 0.18, 'Pb': 0.47000000000000003}",22.8,22.8,0.0,1,Ba0.82 K0.18 Bi0.53 Pb0.47
3152,[6200],Ba0.83K0.17Bi1O3+Z,Ba0.83K0.17Bi1O3,"{'Ba': 0.8300000000000001, 'Bi': 1.0, 'K': 0.17, 'O': 3.0}",20.0,20.0,0.0,1,Ba0.83 K0.17 Bi1 O3
3153,[23653],Ba0.85K0.15Ti2Sb2O1,Ba0.85K0.15Ti2Sb2O1,"{'Ba': 0.85, 'K': 0.15, 'O': 1.0, 'Sb': 2.0, 'Ti': 2.0}",5.86,5.86,0.0,1,Ba0.85 K0.15 Ti2 Sb2 O1
3154,"[23395, 23475]",Ba0.85Na0.15Ti2Sb2O1,Ba0.85Na0.15Ti2Sb2O1,"{'Ba': 0.85, 'Na': 0.15, 'O': 1.0, 'Sb': 2.0, 'Ti': 2.0}",5.22,5.11,0.11,2,Ba0.85 Na0.15 Ti2 Sb2 O1
3155,[25169],Sr0.15Ba0.85Ni2P2,Sr0.15Ba0.85Ni2P2,"{'Ba': 0.85, 'Ni': 2.0, 'P': 2.0, 'Sr': 0.15}",2.5300000000000002,2.5300000000000002,0.0,1,Sr0.15 Ba0.85 Ni2 P2
3156,[23652],Ba0.88K0.12Ti2Sb2O1,Ba0.88K0.12Ti2Sb2O1,"{'Ba': 0.88, 'K': 0.12, 'O': 1.0, 'Sb': 2.0, 'Ti': 2.0}",6.1,6.1,0.0,1,Ba0.88 K0.12 Ti2 Sb2 O1
3157,[2609],Ba0.9K0.1Bi0.3Pb0.7O3,Ba0.9K0.1Bi0.3Pb0.7O3,"{'Ba': 0.9, 'Bi': 0.30000000000000004, 'K': 0.1, 'O': 3.0, 'Pb': 0.7000000000000001}",9.3,9.3,0.0,1,Ba0.9 K0.1 Bi0.3 Pb0.7 O3
3158,[2607],Ba0.9K0.1Bi0.4Pb0.6O3,Ba0.9K0.1Bi0.4Pb0.6O3,"{'Ba': 0.9, 'Bi': 0.4, 'K': 0.1, 'O': 3.0, 'Pb': 0.6000000000000001}",11.3,11.3,0.0,1,Ba0.9 K0.1 Bi0.4 Pb0.6 O3
3159,[953],Ba0.9K0.2Bi1O3-Z,Ba0.9K0.2Bi1O3,"{'Ba': 0.9, 'Bi': 1.0, 'K': 0.2, 'O': 3.0}",20.0,20.0,0.0,1,Ba0.9 K0.2 Bi1 O3
3160,[954],Ba0.9K0.24Bi1O3-Z,Ba0.9K0.24Bi1O3,"{'Ba': 0.9, 'Bi': 1.0, 'K': 0.24, 'O': 3.0}",22.0,22.0,0.0,1,Ba0.9 K0.24 Bi1 O3
3161,[955],Ba0.9Rb0.2Bi1O3-Z,Ba0.9Rb0.2Bi1O3,"{'Ba': 0.9, 'Bi': 1.0, 'O': 3.0, 'Rb': 0.2}",15.0,15.0,0.0,1,Ba0.9 Rb0.2 Bi1 O3
3162,[6636],La1Ba0.9Ca1.1Cu3O7.05,La1Ba0.9Ca1.1Cu3O7.05,"{'Ba': 0.9, 'Ca': 1.1, 'Cu': 3.0, 'La': 1.0, 'O': 7.05}",71.0,71.0,0.0,1,La1 Ba0.9 Ca1.1 Cu3 O7.05
3163,[23651],Ba0.9K0.1Ti2Sb2O1,Ba0.9K0.1Ti2Sb2O1,"{'Ba': 0.9, 'K': 0.1, 'O': 1.0, 'Sb': 2.0, 'Ti': 2.0}",5.13,5.13,0.0,1,Ba0.9 K0.1 Ti2 Sb2 O1
3164,[5894],Ba0.9K0.1Pb1O3,Ba0.9K0.1Pb1O3,"{'Ba': 0.9, 'K': 0.1, 'O': 3.0, 'Pb': 1.0}",30.0,30.0,0.0,1,Ba0.9 K0.1 Pb1 O3
3165,[23474],Ba0.9Na0.1Ti2Sb2O1,Ba0.9Na0.1Ti2Sb2O1,"{'Ba': 0.9, 'Na': 0.1, 'O': 1.0, 'Sb': 2.0, 'Ti': 2.0}",4.24,4.24,0.0,1,Ba0.9 Na0.1 Ti2 Sb2 O1
3166,[23602],Ba0.9Rb0.1Ti2Sb2O1,Ba0.9Rb0.1Ti2Sb2O1,"{'Ba': 0.9, 'O': 1.0, 'Rb': 0.1, 'Sb': 2.0, 'Ti': 2.0}",5.33,5.33,0.0,1,Ba0.9 Rb0.1 Ti2 Sb2 O1
3167,[23650],Ba0.95K0.05Ti2Sb2O1,Ba0.95K0.05Ti2Sb2O1,"{'Ba': 0.9500000000000001, 'K': 0.05, 'O': 1.0, 'Sb': 2.0, 'Ti': 2.0}",4.25,4.25,0.0,1,Ba0.95 K0.05 Ti2 Sb2 O1
3168,[23473],Ba0.95Na0.05Ti2Sb2O1,Ba0.95Na0.05Ti2Sb2O1,"{'Ba': 0.9500000000000001, 'Na': 0.05, 'O': 1.0, 'Sb': 2.0, 'Ti': 2.0}",3.14,3.14,0.0,1,Ba0.95 Na0.05 Ti2 Sb2 O1
3169,[23601],Ba0.95Rb0.05Ti2Sb2O1,Ba0.95Rb0.05Ti2Sb2O1,"{'Ba': 0.9500000000000001, 'O': 1.0, 'Rb': 0.05, 'Sb': 2.0, 'Ti': 2.0}",4.25,4.25,0.0,1,Ba0.95 Rb0.05 Ti2 Sb2 O1
3170,[23649],Ba0.96K0.04Ti2Sb2O1,Ba0.96K0.04Ti2Sb2O1,"{'Ba': 0.96, 'K': 0.04, 'O': 1.0, 'Sb': 2.0, 'Ti': 2.0}",3.88,3.88,0.0,1,Ba0.96 K0.04 Ti2 Sb2 O1
3171,"[12528, 12529, 13016, 13017, 13018, 13019, 13020, 25314]",Ba1,Ba1,{'Ba': 1.0},5.1,4.04375,1.4729726533,8,Ba1
3172,[11109],Ba1Pb0.9Bi0.1O3,Ba1Pb0.9Bi0.1O3,"{'Ba': 1.0, 'Bi': 0.1, 'O': 3.0, 'Pb': 0.9}",2.91,2.91,0.0,1,Ba1 Pb0.9 Bi0.1 O3
3173,[11110],Ba1Pb0.85Bi0.15O3,Ba1Pb0.85Bi0.15O3,"{'Ba': 1.0, 'Bi': 0.15, 'O': 3.0, 'Pb': 0.85}",8.7,8.7,0.0,1,Ba1 Pb0.85 Bi0.15 O3
3174,[3110],Ba1Pb0.83Bi0.17O3,Ba1Pb0.83Bi0.17O3,"{'Ba': 1.0, 'Bi': 0.17, 'O': 3.0, 'Pb': 0.8300000000000001}",7.6,7.6,0.0,1,Ba1 Pb0.83 Bi0.17 O3
3175,"[753, 1297, 11111]",Ba1Pb0.8Bi0.2O3,Ba1Pb0.8Bi0.2O3,"{'Ba': 1.0, 'Bi': 0.2, 'O': 3.0, 'Pb': 0.8}",10.25,9.75,0.3535533906,3,Ba1 Pb0.8 Bi0.2 O3
3176,[3109],Ba1Pb0.78Bi0.22O3,Ba1Pb0.78Bi0.22O3,"{'Ba': 1.0, 'Bi': 0.22, 'O': 3.0, 'Pb': 0.78}",10.3,10.3,0.0,1,Ba1 Pb0.78 Bi0.22 O3
3177,[21003],Ba1Pb0.65Hg0.1Bi0.25O3,Ba1Pb0.65Hg0.1Bi0.25O3,"{'Ba': 1.0, 'Bi': 0.25, 'Hg': 0.1, 'O': 3.0, 'Pb': 0.65}",10.0,10.0,0.0,1,Ba1 Pb0.65 Hg0.1 Bi0.25 O3
3178,[21004],Ba1Pb0.55Hg0.2Bi0.25O3,Ba1Pb0.55Hg0.2Bi0.25O3,"{'Ba': 1.0, 'Bi': 0.25, 'Hg': 0.2, 'O': 3.0, 'Pb': 0.55}",3.83,3.83,0.0,1,Ba1 Pb0.55 Hg0.2 Bi0.25 O3
3179,[22334],Ba1Pb0.5Hg0.25Bi0.25O3,Ba1Pb0.5Hg0.25Bi0.25O3,"{'Ba': 1.0, 'Bi': 0.25, 'Hg': 0.25, 'O': 3.0, 'Pb': 0.5}",2.93,2.93,0.0,1,Ba1 Pb0.5 Hg0.25 Bi0.25 O3
3180,[21005],Ba1Pb0.45Hg0.3Bi0.25O3,Ba1Pb0.45Hg0.3Bi0.25O3,"{'Ba': 1.0, 'Bi': 0.25, 'Hg': 0.30000000000000004, 'O': 3.0, 'Pb': 0.45}",4.42,4.42,0.0,1,Ba1 Pb0.45 Hg0.3 Bi0.25 O3
3181,[22335],Ba1Pb0.4Hg0.35Bi0.25O3,Ba1Pb0.4Hg0.35Bi0.25O3,"{'Ba': 1.0, 'Bi': 0.25, 'Hg': 0.35000000000000003, 'O': 3.0, 'Pb': 0.4}",9.97,9.97,0.0,1,Ba1 Pb0.4 Hg0.35 Bi0.25 O3
3182,[21006],Ba1Pb0.35Hg0.4Bi0.25O3,Ba1Pb0.35Hg0.4Bi0.25O3,"{'Ba': 1.0, 'Bi': 0.25, 'Hg': 0.4, 'O': 3.0, 'Pb': 0.35000000000000003}",10.7,10.7,0.0,1,Ba1 Pb0.35 Hg0.4 Bi0.25 O3
3183,"[2296, 5627, 7121, 11112, 12075, 20779, 22333]",Ba1Pb0.75Bi0.25O3,Ba1Pb0.75Bi0.25O3,"{'Ba': 1.0, 'Bi': 0.25, 'O': 3.0, 'Pb': 0.75}",12.5,11.6142857143,0.6220440302,7,Ba1 Pb0.75 Bi0.25 O3
3184,[21002],Ba1Pb0.75Bi0.253,Ba1Pb0.75Bi0.253,"{'Ba': 1.0, 'Bi': 0.253, 'Pb': 0.75}",12.5,12.5,0.0,1,Ba1 Pb0.75 Bi0.253
3185,[11113],Ba1Pb0.7Bi0.3O3,Ba1Pb0.7Bi0.3O3,"{'Ba': 1.0, 'Bi': 0.30000000000000004, 'O': 3.0, 'Pb': 0.7000000000000001}",11.23,11.23,0.0,1,Ba1 Pb0.7 Bi0.3 O3
3186,[11114],Ba1Pb0.65Bi0.35O3,Ba1Pb0.65Bi0.35O3,"{'Ba': 1.0, 'Bi': 0.35000000000000003, 'O': 3.0, 'Pb': 0.65}",3.93,3.93,0.0,1,Ba1 Pb0.65 Bi0.35 O3
3187,[23024],Ba1Ti2Sb1.6Bi0.4O1,Ba1Ti2Sb1.6Bi0.4O1,"{'Ba': 1.0, 'Bi': 0.4, 'O': 1.0, 'Sb': 1.6, 'Ti': 2.0}",3.47,3.47,0.0,1,Ba1 Ti2 Sb1.6 Bi0.4 O1
3188,[23025],Ba1Ti2Sb1.4Bi0.6O1,Ba1Ti2Sb1.4Bi0.6O1,"{'Ba': 1.0, 'Bi': 0.6000000000000001, 'O': 1.0, 'Sb': 1.4, 'Ti': 2.0}",2.59,2.59,0.0,1,Ba1 Ti2 Sb1.4 Bi0.6 O1
3189,"[3738, 3739, 3740, 5215, 6401]",BaKBi1O3,BaKBi1O3,"{'Ba': 1.0, 'Bi': 1.0, 'K': 1.0, 'O': 3.0}",32.0,29.2,3.2784142508,5,Ba1 K1 Bi1 O3
3190,[6361],Ba1K1Bi1O4,Ba1K1Bi1O4,"{'Ba': 1.0, 'Bi': 1.0, 'K': 1.0, 'O': 4.0}",23.0,23.0,0.0,1,Ba1 K1 Bi1 O4
3191,[23026],Ba1Ti2Sb0.8Bi1.2O1,Ba1Ti2Sb0.8Bi1.2O1,"{'Ba': 1.0, 'Bi': 1.2, 'O': 1.0, 'Sb': 0.8, 'Ti': 2.0}",4.02,4.02,0.0,1,Ba1 Ti2 Sb0.8 Bi1.2 O1
3192,[23027],Ba1Ti2Sb0.4Bi1.6O1,Ba1Ti2Sb0.4Bi1.6O1,"{'Ba': 1.0, 'Bi': 1.6, 'O': 1.0, 'Sb': 0.4, 'Ti': 2.0}",4.52,4.52,0.0,1,Ba1 Ti2 Sb0.4 Bi1.6 O1
3193,"[23020, 23028, 23808, 25899]",Ba1Ti2Bi2O1,Ba1Ti2Bi2O1,"{'Ba': 1.0, 'Bi': 2.0, 'O': 1.0, 'Ti': 2.0}",4.6,4.6,0.0,4,Ba1 Ti2 Bi2 O1
3194,"[11549, 13015, 19036, 21137, 25903, 26032]",Ba1Bi3,Ba1Bi3,"{'Ba': 1.0, 'Bi': 3.0}",6.0,5.8258333333,0.1230317258,6,Ba1 Bi3
3195,[21399],Gd0.99Ca0.01Ba1Sr1Cu3O6.9198,Gd0.99Ca0.01Ba1Sr1Cu3O6.9198,"{'Ba': 1.0, 'Ca': 0.01, 'Cu': 3.0, 'Gd': 0.99, 'O': 6.9198, 'Sr': 1.0}",70.5,70.5,0.0,1,Gd0.99 Ca0.01 Ba1 Sr1 Cu3 O6.9198
3196,[21400],Gd0.96Ca0.04Ba1Sr1Cu3O6.9138,Gd0.96Ca0.04Ba1Sr1Cu3O6.9138,"{'Ba': 1.0, 'Ca': 0.04, 'Cu': 3.0, 'Gd': 0.96, 'O': 6.9138, 'Sr': 1.0}",71.0,71.0,0.0,1,Gd0.96 Ca0.04 Ba1 Sr1 Cu3 O6.9138
3197,[4517],Nd1Ba1Sr0.95Ca0.05Cu3O7-z,Nd1Ba1Sr0.95Ca0.05Cu3O7,"{'Ba': 1.0, 'Ca': 0.05, 'Cu': 3.0, 'Nd': 1.0, 'O': 7.0, 'Sr': 0.9500000000000001}",67.0,67.0,0.0,1,Nd1 Ba1 Sr0.95 Ca0.05 Cu3 O7
3198,[21401],Gd0.93Ca0.07Ba1Sr1Cu3O6.8804,Gd0.93Ca0.07Ba1Sr1Cu3O6.8804,"{'Ba': 1.0, 'Ca': 0.07, 'Cu': 3.0, 'Gd': 0.93, 'O': 6.8804, 'Sr': 1.0}",53.5,53.5,0.0,1,Gd0.93 Ca0.07 Ba1 Sr1 Cu3 O6.8804
3199,[2778],Y0.9Ca0.1Sr1Ba1Cu2.7Co0.3O6+Z,Y0.9Ca0.1Sr1Ba1Cu2.7Co0.3O6,"{'Ba': 1.0, 'Ca': 0.1, 'Co': 0.30000000000000004, 'Cu': 2.7, 'O': 6.0, 'Sr': 1.0, 'Y': 0.9}",40.0,40.0,0.0,1,Y0.9 Ca0.1 Sr1 Ba1 Cu2.7 Co0.3 O6
3200,[6253],Eu1Ba1Sr0.9Ca0.1Cu3O6.95,Eu1Ba1Sr0.9Ca0.1Cu3O6.95,"{'Ba': 1.0, 'Ca': 0.1, 'Cu': 3.0, 'Eu': 1.0, 'O': 6.95, 'Sr': 0.9}",81.0,81.0,0.0,1,Eu1 Ba1 Sr0.9 Ca0.1 Cu3 O6.95
3201,[21402],Gd0.9Ca0.1Ba1Sr1Cu3O6.8754,Gd0.9Ca0.1Ba1Sr1Cu3O6.8754,"{'Ba': 1.0, 'Ca': 0.1, 'Cu': 3.0, 'Gd': 0.9, 'O': 6.8754, 'Sr': 1.0}",43.0,43.0,0.0,1,Gd0.9 Ca0.1 Ba1 Sr1 Cu3 O6.8754
3202,[4515],Nd0.9Ca0.1Ba1Sr1Cu3O6.85,Nd0.9Ca0.1Ba1Sr1Cu3O6.85,"{'Ba': 1.0, 'Ca': 0.1, 'Cu': 3.0, 'Nd': 0.9, 'O': 6.85, 'Sr': 1.0}",71.0,71.0,0.0,1,Nd0.9 Ca0.1 Ba1 Sr1 Cu3 O6.85
3203,[4518],Nd1Ba1Sr0.9Ca0.1Cu3O7-z,Nd1Ba1Sr0.9Ca0.1Cu3O7,"{'Ba': 1.0, 'Ca': 0.1, 'Cu': 3.0, 'Nd': 1.0, 'O': 7.0, 'Sr': 0.9}",70.0,70.0,0.0,1,Nd1 Ba1 Sr0.9 Ca0.1 Cu3 O7
3204,[4519],Nd1Ba1Sr0.85Ca0.15Cu3O7-z,Nd1Ba1Sr0.85Ca0.15Cu3O7,"{'Ba': 1.0, 'Ca': 0.15, 'Cu': 3.0, 'Nd': 1.0, 'O': 7.0, 'Sr': 0.85}",69.0,69.0,0.0,1,Nd1 Ba1 Sr0.85 Ca0.15 Cu3 O7
3205,[6016],Y0.74Ca0.16Sr1.1Ba1Cu2.78S0.22O7,Y0.74Ca0.16Sr1.1Ba1Cu2.78S0.22O7,"{'Ba': 1.0, 'Ca': 0.16, 'Cu': 2.7800000000000002, 'O': 7.0, 'S': 0.22, 'Sr': 1.1, 'Y': 0.74}",75.1,75.1,0.0,1,Y0.74 Ca0.16 Sr1.1 Ba1 Cu2.78 S0.22 O7
3206,[2779],Y0.8Ca0.2Sr1Ba1Cu2.7Co0.3O6+Z,Y0.8Ca0.2Sr1Ba1Cu2.7Co0.3O6,"{'Ba': 1.0, 'Ca': 0.2, 'Co': 0.30000000000000004, 'Cu': 2.7, 'O': 6.0, 'Sr': 1.0, 'Y': 0.8}",58.0,58.0,0.0,1,Y0.8 Ca0.2 Sr1 Ba1 Cu2.7 Co0.3 O6
3207,[4091],Y0.8Ca0.2Sr1Ba1Cu2.7Ga0.3O7,Y0.8Ca0.2Sr1Ba1Cu2.7Ga0.3O7,"{'Ba': 1.0, 'Ca': 0.2, 'Cu': 2.7, 'Ga': 0.30000000000000004, 'O': 7.0, 'Sr': 1.0, 'Y': 0.8}",64.0,64.0,0.0,1,Y0.8 Ca0.2 Sr1 Ba1 Cu2.7 Ga0.3 O7
3208,[6254],Eu1Ba1Sr0.8Ca0.2Cu3O6.95,Eu1Ba1Sr0.8Ca0.2Cu3O6.95,"{'Ba': 1.0, 'Ca': 0.2, 'Cu': 3.0, 'Eu': 1.0, 'O': 6.95, 'Sr': 0.8}",75.0,75.0,0.0,1,Eu1 Ba1 Sr0.8 Ca0.2 Cu3 O6.95
3209,[4516],Nd0.8Ca0.2Ba1Sr1Cu3O6.78,Nd0.8Ca0.2Ba1Sr1Cu3O6.78,"{'Ba': 1.0, 'Ca': 0.2, 'Cu': 3.0, 'Nd': 0.8, 'O': 6.78, 'Sr': 1.0}",77.0,77.0,0.0,1,Nd0.8 Ca0.2 Ba1 Sr1 Cu3 O6.78
3210,[4520],Nd1Ba1Sr0.8Ca0.2Cu3O7-z,Nd1Ba1Sr0.8Ca0.2Cu3O7,"{'Ba': 1.0, 'Ca': 0.2, 'Cu': 3.0, 'Nd': 1.0, 'O': 7.0, 'Sr': 0.8}",69.0,69.0,0.0,1,Nd1 Ba1 Sr0.8 Ca0.2 Cu3 O7
3211,[4077],Y0.7Ca0.3Ba1Cu2.7Zn0.3O7-z,Y0.7Ca0.3Ba1Cu2.7Zn0.3O7,"{'Ba': 1.0, 'Ca': 0.30000000000000004, 'Cu': 2.7, 'O': 7.0, 'Y': 0.7000000000000001, 'Zn': 0.30000000000000004}",45.0,45.0,0.0,1,Y0.7 Ca0.3 Ba1 Cu2.7 Zn0.3 O7
3212,[6025],Y0.7Ca0.3Ba1Sr1Cu2.8P0.2O0.8+z,Y0.7Ca0.3Ba1Sr1Cu2.8P0.2O0.8,"{'Ba': 1.0, 'Ca': 0.30000000000000004, 'Cu': 2.8, 'O': 0.8, 'P': 0.2, 'Sr': 1.0, 'Y': 0.7000000000000001}",68.0,68.0,0.0,1,Y0.7 Ca0.3 Ba1 Sr1 Cu2.8 P0.2 O0.8
3213,[6255],Eu1Ba1Sr0.7Ca0.3Cu3O6.95,Eu1Ba1Sr0.7Ca0.3Cu3O6.95,"{'Ba': 1.0, 'Ca': 0.30000000000000004, 'Cu': 3.0, 'Eu': 1.0, 'O': 6.95, 'Sr': 0.7000000000000001}",75.0,75.0,0.0,1,Eu1 Ba1 Sr0.7 Ca0.3 Cu3 O6.95
3214,[3351],Ca0.3Nd0.7Ba1La1Cu3O7.24,Ca0.3Nd0.7Ba1La1Cu3O7.24,"{'Ba': 1.0, 'Ca': 0.30000000000000004, 'Cu': 3.0, 'La': 1.0, 'Nd': 0.7000000000000001, 'O': 7.24}",14.3,14.3,0.0,1,Ca0.3 Nd0.7 Ba1 La1 Cu3 O7.24
3215,[3350],Ca0.4Nd0.6Ba1La1Cu3O7.19,Ca0.4Nd0.6Ba1La1Cu3O7.19,"{'Ba': 1.0, 'Ca': 0.4, 'Cu': 3.0, 'La': 1.0, 'Nd': 0.6000000000000001, 'O': 7.19}",21.9,21.9,0.0,1,Ca0.4 Nd0.6 Ba1 La1 Cu3 O7.19
3216,[4521],Nd1Ba1Sr0.6Ca0.4Cu3O7-z,Nd1Ba1Sr0.6Ca0.4Cu3O7,"{'Ba': 1.0, 'Ca': 0.4, 'Cu': 3.0, 'Nd': 1.0, 'O': 7.0, 'Sr': 0.6000000000000001}",66.0,66.0,0.0,1,Nd1 Ba1 Sr0.6 Ca0.4 Cu3 O7
3217,[3349],Ca0.5Nd0.5Ba1La1Cu3O7.17,Ca0.5Nd0.5Ba1La1Cu3O7.17,"{'Ba': 1.0, 'Ca': 0.5, 'Cu': 3.0, 'La': 1.0, 'Nd': 0.5, 'O': 7.17}",41.4,41.4,0.0,1,Ca0.5 Nd0.5 Ba1 La1 Cu3 O7.17
3218,[8792],La1.5Ba1Ca0.5Cu3O6.801,La1.5Ba1Ca0.5Cu3O6.801,"{'Ba': 1.0, 'Ca': 0.5, 'Cu': 3.0, 'La': 1.5, 'O': 6.801}",30.0,30.0,0.0,1,La1.5 Ba1 Ca0.5 Cu3 O6.801
3219,[8793],La1.5Ba1Ca0.5Cu3O6.981,La1.5Ba1Ca0.5Cu3O6.981,"{'Ba': 1.0, 'Ca': 0.5, 'Cu': 3.0, 'La': 1.5, 'O': 6.981}",50.0,50.0,0.0,1,La1.5 Ba1 Ca0.5 Cu3 O6.981
3220,[8794],La1.5Ba1Ca0.5Cu3O7.126,La1.5Ba1Ca0.5Cu3O7.126,"{'Ba': 1.0, 'Ca': 0.5, 'Cu': 3.0, 'La': 1.5, 'O': 7.126}",67.0,67.0,0.0,1,La1.5 Ba1 Ca0.5 Cu3 O7.126
3221,[8795],La1.5Ba1Ca0.5Cu3O7.195,La1.5Ba1Ca0.5Cu3O7.195,"{'Ba': 1.0, 'Ca': 0.5, 'Cu': 3.0, 'La': 1.5, 'O': 7.195}",74.0,74.0,0.0,1,La1.5 Ba1 Ca0.5 Cu3 O7.195
3222,[3348],Ca0.6Nd0.4Ba1La1Cu3O7.1,Ca0.6Nd0.4Ba1La1Cu3O7.1,"{'Ba': 1.0, 'Ca': 0.6000000000000001, 'Cu': 3.0, 'La': 1.0, 'Nd': 0.4, 'O': 7.1}",48.6,48.6,0.0,1,Ca0.6 Nd0.4 Ba1 La1 Cu3 O7.1
3223,[4522],Nd1Ba1Sr0.4Ca0.6Cu3O7-z,Nd1Ba1Sr0.4Ca0.6Cu3O7,"{'Ba': 1.0, 'Ca': 0.6000000000000001, 'Cu': 3.0, 'Nd': 1.0, 'O': 7.0, 'Sr': 0.4}",63.0,63.0,0.0,1,Nd1 Ba1 Sr0.4 Ca0.6 Cu3 O7
3224,[3347],Ca0.7Nd0.3Ba1La1Cu3O7.04,Ca0.7Nd0.3Ba1La1Cu3O7.04,"{'Ba': 1.0, 'Ca': 0.7000000000000001, 'Cu': 3.0, 'La': 1.0, 'Nd': 0.30000000000000004, 'O': 7.04}",73.8,73.8,0.0,1,Ca0.7 Nd0.3 Ba1 La1 Cu3 O7.04
3225,[3346],Ca0.8Nd0.2Ba1La1Cu3O6.99,Ca0.8Nd0.2Ba1La1Cu3O6.99,"{'Ba': 1.0, 'Ca': 0.8, 'Cu': 3.0, 'La': 1.0, 'Nd': 0.2, 'O': 6.99}",73.8,73.8,0.0,1,Ca0.8 Nd0.2 Ba1 La1 Cu3 O6.99
3226,[4648],Pr0.2Ca0.8Ba1La1Cu3O7.1,Pr0.2Ca0.8Ba1La1Cu3O7.1,"{'Ba': 1.0, 'Ca': 0.8, 'Cu': 3.0, 'La': 1.0, 'O': 7.1, 'Pr': 0.2}",33.5,33.5,0.0,1,Pr0.2 Ca0.8 Ba1 La1 Cu3 O7.1
3227,[4523],Nd1Ba1Sr0.2Ca0.8Cu3O7-z,Nd1Ba1Sr0.2Ca0.8Cu3O7,"{'Ba': 1.0, 'Ca': 0.8, 'Cu': 3.0, 'Nd': 1.0, 'O': 7.0, 'Sr': 0.2}",51.0,51.0,0.0,1,Nd1 Ba1 Sr0.2 Ca0.8 Cu3 O7
3228,[3344],Ca0.85Ce0.15Ba1La1Cu3O7.07,Ca0.85Ce0.15Ba1La1Cu3O7.07,"{'Ba': 1.0, 'Ca': 0.85, 'Ce': 0.15, 'Cu': 3.0, 'La': 1.0, 'O': 7.07}",52.4,52.4,0.0,1,Ca0.85 Ce0.15 Ba1 La1 Cu3 O7.07
3229,[3343],Ca0.9Ce0.1Ba1La1Cu3O7.02,Ca0.9Ce0.1Ba1La1Cu3O7.02,"{'Ba': 1.0, 'Ca': 0.9, 'Ce': 0.1, 'Cu': 3.0, 'La': 1.0, 'O': 7.02}",60.5,60.5,0.0,1,Ca0.9 Ce0.1 Ba1 La1 Cu3 O7.02
3230,[3345],Ca0.9Nd0.1Ba1La1Cu3O6.87,Ca0.9Nd0.1Ba1La1Cu3O6.87,"{'Ba': 1.0, 'Ca': 0.9, 'Cu': 3.0, 'La': 1.0, 'Nd': 0.1, 'O': 6.87}",73.8,73.8,0.0,1,Ca0.9 Nd0.1 Ba1 La1 Cu3 O6.87
3231,[3342],Ca0.95Ce0.05Ba1La1Cu3O6.91,Ca0.95Ce0.05Ba1La1Cu3O6.91,"{'Ba': 1.0, 'Ca': 0.9500000000000001, 'Ce': 0.05, 'Cu': 3.0, 'La': 1.0, 'O': 6.91}",64.8,64.8,0.0,1,Ca0.95 Ce0.05 Ba1 La1 Cu3 O6.91
3232,[1070],Tl1Ba1Ca1Cu2O5.5,Tl1Ba1Ca1Cu2O5.5,"{'Ba': 1.0, 'Ca': 1.0, 'Cu': 2.0, 'O': 5.5, 'Tl': 1.0}",114.0,114.0,0.0,1,Tl1 Ba1 Ca1 Cu2 O5.5
3233,"[4574, 4575]",Tl1Ba1Sr1Ca1Cu2O7,Tl1Ba1Sr1Ca1Cu2O7,"{'Ba': 1.0, 'Ca': 1.0, 'Cu': 2.0, 'O': 7.0, 'Sr': 1.0, 'Tl': 1.0}",80.0,48.0,32.0,2,Tl1 Ba1 Sr1 Ca1 Cu2 O7
3234,[11628],La1Ba1Ca1Cu2.5P0.5O9-z,La1Ba1Ca1Cu2.5P0.5O9,"{'Ba': 1.0, 'Ca': 1.0, 'Cu': 2.5, 'La': 1.0, 'O': 9.0, 'P': 0.5}",20.0,20.0,0.0,1,La1 Ba1 Ca1 Cu2.5 P0.5 O9
3235,[2336],La1Ba1Ca1Cu2.6Ni0.4O6.854,La1Ba1Ca1Cu2.6Ni0.4O6.854,"{'Ba': 1.0, 'Ca': 1.0, 'Cu': 2.6, 'La': 1.0, 'Ni': 0.4, 'O': 6.854}",24.0,24.0,0.0,1,La1 Ba1 Ca1 Cu2.6 Ni0.4 O6.854
3236,[2335],La1Ba1Ca1Cu2.7Ni0.3O6.848,La1Ba1Ca1Cu2.7Ni0.3O6.848,"{'Ba': 1.0, 'Ca': 1.0, 'Cu': 2.7, 'La': 1.0, 'Ni': 0.30000000000000004, 'O': 6.848}",28.0,28.0,0.0,1,La1 Ba1 Ca1 Cu2.7 Ni0.3 O6.848
3237,[2331],La1Ca1Ba1Cu2.7Zn0.3O7-Z,La1Ca1Ba1Cu2.7Zn0.3O7,"{'Ba': 1.0, 'Ca': 1.0, 'Cu': 2.7, 'La': 1.0, 'O': 7.0, 'Zn': 0.30000000000000004}",20.0,20.0,0.0,1,La1 Ca1 Ba1 Cu2.7 Zn0.3 O7
3238,[11627],La1Ba1Ca1Cu2.7P0.3O8.2-z,La1Ba1Ca1Cu2.7P0.3O8.2,"{'Ba': 1.0, 'Ca': 1.0, 'Cu': 2.7, 'La': 1.0, 'O': 8.2, 'P': 0.30000000000000004}",14.0,14.0,0.0,1,La1 Ba1 Ca1 Cu2.7 P0.3 O8.2
3239,[5533],Ca1La1Ba1Cu2.76Fe0.24O7,Ca1La1Ba1Cu2.76Fe0.24O7,"{'Ba': 1.0, 'Ca': 1.0, 'Cu': 2.76, 'Fe': 0.24, 'La': 1.0, 'O': 7.0}",22.0,22.0,0.0,1,Ca1 La1 Ba1 Cu2.76 Fe0.24 O7
3240,[2334],La1Ba1Ca1Cu2.8Ni0.2O6.837,La1Ba1Ca1Cu2.8Ni0.2O6.837,"{'Ba': 1.0, 'Ca': 1.0, 'Cu': 2.8, 'La': 1.0, 'Ni': 0.2, 'O': 6.837}",30.0,30.0,0.0,1,La1 Ba1 Ca1 Cu2.8 Ni0.2 O6.837
3241,[11124],Ca1La1Ba1Cu2.8P0.2O7,Ca1La1Ba1Cu2.8P0.2O7,"{'Ba': 1.0, 'Ca': 1.0, 'Cu': 2.8, 'La': 1.0, 'O': 7.0, 'P': 0.2}",90.0,90.0,0.0,1,Ca1 La1 Ba1 Cu2.8 P0.2 O7
3242,[2330],La1Ca1Ba1Cu2.8Zn0.2O7-Z,La1Ca1Ba1Cu2.8Zn0.2O7,"{'Ba': 1.0, 'Ca': 1.0, 'Cu': 2.8, 'La': 1.0, 'O': 7.0, 'Zn': 0.2}",30.0,30.0,0.0,1,La1 Ca1 Ba1 Cu2.8 Zn0.2 O7
3243,[5550],Ca1La1Ba1Cu2.85Zn0.045O7,Ca1La1Ba1Cu2.85Zn0.045O7,"{'Ba': 1.0, 'Ca': 1.0, 'Cu': 2.85, 'La': 1.0, 'O': 7.0, 'Zn': 0.045}",55.0,55.0,0.0,1,Ca1 La1 Ba1 Cu2.85 Zn0.045 O7
3244,[5532],Ca1La1Ba1Cu2.88Fe0.12O7,Ca1La1Ba1Cu2.88Fe0.12O7,"{'Ba': 1.0, 'Ca': 1.0, 'Cu': 2.88, 'Fe': 0.12, 'La': 1.0, 'O': 7.0}",28.0,28.0,0.0,1,Ca1 La1 Ba1 Cu2.88 Fe0.12 O7
3245,[5552],Ca1La1Ba1Cu2.88Zn0.12O7,Ca1La1Ba1Cu2.88Zn0.12O7,"{'Ba': 1.0, 'Ca': 1.0, 'Cu': 2.88, 'La': 1.0, 'O': 7.0, 'Zn': 0.12}",14.0,14.0,0.0,1,Ca1 La1 Ba1 Cu2.88 Zn0.12 O7
3246,[2333],La1Ba1Ca1Cu2.9Ni0.1O6.85,La1Ba1Ca1Cu2.9Ni0.1O6.85,"{'Ba': 1.0, 'Ca': 1.0, 'Cu': 2.9, 'La': 1.0, 'Ni': 0.1, 'O': 6.85}",45.0,45.0,0.0,1,La1 Ba1 Ca1 Cu2.9 Ni0.1 O6.85
3247,[2329],La1Ca1Ba1Cu2.9Zn0.1O7-Z,La1Ca1Ba1Cu2.9Zn0.1O7,"{'Ba': 1.0, 'Ca': 1.0, 'Cu': 2.9, 'La': 1.0, 'O': 7.0, 'Zn': 0.1}",37.0,37.0,0.0,1,La1 Ca1 Ba1 Cu2.9 Zn0.1 O7
3248,[11626],La1Ba1Ca1Cu2.9P0.1O7.4-z,La1Ba1Ca1Cu2.9P0.1O7.4,"{'Ba': 1.0, 'Ca': 1.0, 'Cu': 2.9, 'La': 1.0, 'O': 7.4, 'P': 0.1}",20.0,20.0,0.0,1,La1 Ba1 Ca1 Cu2.9 P0.1 O7.4
3249,[5551],Ca1La1Ba1Cu2.91Zn0.09O7,Ca1La1Ba1Cu2.91Zn0.09O7,"{'Ba': 1.0, 'Ca': 1.0, 'Cu': 2.91, 'La': 1.0, 'O': 7.0, 'Zn': 0.09}",20.0,20.0,0.0,1,Ca1 La1 Ba1 Cu2.91 Zn0.09 O7
3250,[5531],Ca1La1Ba1Cu2.94Fe0.06O7,Ca1La1Ba1Cu2.94Fe0.06O7,"{'Ba': 1.0, 'Ca': 1.0, 'Cu': 2.94, 'Fe': 0.06, 'La': 1.0, 'O': 7.0}",44.0,44.0,0.0,1,Ca1 La1 Ba1 Cu2.94 Fe0.06 O7
3251,[2328],La1Ca1Ba1Cu2.95Zn0.05O7-Z,La1Ca1Ba1Cu2.95Zn0.05O7,"{'Ba': 1.0, 'Ca': 1.0, 'Cu': 2.95, 'La': 1.0, 'O': 7.0, 'Zn': 0.05}",55.0,55.0,0.0,1,La1 Ca1 Ba1 Cu2.95 Zn0.05 O7
3252,[5530],Ca1La1Ba1Cu2.97Fe0.03O7,Ca1La1Ba1Cu2.97Fe0.03O7,"{'Ba': 1.0, 'Ca': 1.0, 'Cu': 2.9699999999999998, 'Fe': 0.03, 'La': 1.0, 'O': 7.0}",49.0,49.0,0.0,1,Ca1 La1 Ba1 Cu2.97 Fe0.03 O7
3253,[5549],Ca1La1Ba1Cu2.97Zn0.03O7,Ca1La1Ba1Cu2.97Zn0.03O7,"{'Ba': 1.0, 'Ca': 1.0, 'Cu': 2.9699999999999998, 'La': 1.0, 'O': 7.0, 'Zn': 0.03}",60.0,60.0,0.0,1,Ca1 La1 Ba1 Cu2.97 Zn0.03 O7
3254,[6074],La0.75Dy0.25Ba1Ca1Cu3O7,La0.75Dy0.25Ba1Ca1Cu3O7,"{'Ba': 1.0, 'Ca': 1.0, 'Cu': 3.0, 'Dy': 0.25, 'La': 0.75, 'O': 7.0}",56.0,56.0,0.0,1,La0.75 Dy0.25 Ba1 Ca1 Cu3 O7
3255,[6075],La0.5Dy0.5Ba1Ca1Cu3O7,La0.5Dy0.5Ba1Ca1Cu3O7,"{'Ba': 1.0, 'Ca': 1.0, 'Cu': 3.0, 'Dy': 0.5, 'La': 0.5, 'O': 7.0}",55.0,55.0,0.0,1,La0.5 Dy0.5 Ba1 Ca1 Cu3 O7
3256,[6076],La0.25Dy0.75Ba1Ca1Cu3O7,La0.25Dy0.75Ba1Ca1Cu3O7,"{'Ba': 1.0, 'Ca': 1.0, 'Cu': 3.0, 'Dy': 0.75, 'La': 0.25, 'O': 7.0}",59.0,59.0,0.0,1,La0.25 Dy0.75 Ba1 Ca1 Cu3 O7
3257,[2875],Ca1Ba1Dy1Cu3O7-Z,Ca1Ba1Dy1Cu3O7,"{'Ba': 1.0, 'Ca': 1.0, 'Cu': 3.0, 'Dy': 1.0, 'O': 7.0}",65.0,65.0,0.0,1,Ca1 Ba1 Dy1 Cu3 O7
3258,[2877],Ca1Ba1Er1Cu3O7-Z,Ca1Ba1Er1Cu3O7,"{'Ba': 1.0, 'Ca': 1.0, 'Cu': 3.0, 'Er': 1.0, 'O': 7.0}",66.0,66.0,0.0,1,Ca1 Ba1 Er1 Cu3 O7
3259,[2859],Ca1Ba1La0.8Eu0.2Cu3O7-Z,Ca1Ba1La0.8Eu0.2Cu3O7,"{'Ba': 1.0, 'Ca': 1.0, 'Cu': 3.0, 'Eu': 0.2, 'La': 0.8, 'O': 7.0}",69.0,69.0,0.0,1,Ca1 Ba1 La0.8 Eu0.2 Cu3 O7
3260,[2860],Ca1Ba1La0.6Eu0.4Cu3O7-Z,Ca1Ba1La0.6Eu0.4Cu3O7,"{'Ba': 1.0, 'Ca': 1.0, 'Cu': 3.0, 'Eu': 0.4, 'La': 0.6000000000000001, 'O': 7.0}",65.0,65.0,0.0,1,Ca1 Ba1 La0.6 Eu0.4 Cu3 O7
3261,[2861],Ca1Ba1La0.4Eu0.6Cu3O7-Z,Ca1Ba1La0.4Eu0.6Cu3O7,"{'Ba': 1.0, 'Ca': 1.0, 'Cu': 3.0, 'Eu': 0.6000000000000001, 'La': 0.4, 'O': 7.0}",62.0,62.0,0.0,1,Ca1 Ba1 La0.4 Eu0.6 Cu3 O7