,sc_id,supercon_formula,cleaned_formula,material_dict,highest_Tc,average_Tc,std_Tc,entry_count,composition
1480,[23209],Ba1Fe1.75Zn0.14Co0.11As2,Ba1Fe1.75Zn0.14Co0.11As2,"{'As': 2.0, 'Ba': 1.0, 'Co': 0.11, 'Fe': 1.75, 'Zn': 0.14}",5.0,5.0,0.0,1,Ba1 Fe1.75 Zn0.14 Co0.11 As2
1481,[23208],Ba1Fe1.79Zn0.1Co0.11As2,Ba1Fe1.79Zn0.1Co0.11As2,"{'As': 2.0, 'Ba': 1.0, 'Co': 0.11, 'Fe': 1.79, 'Zn': 0.1}",8.0,8.0,0.0,1,Ba1 Fe1.79 Zn0.1 Co0.11 As2
1482,[23207],Ba1Fe1.81Zn0.08Co0.11As2,Ba1Fe1.81Zn0.08Co0.11As2,"{'As': 2.0, 'Ba': 1.0, 'Co': 0.11, 'Fe': 1.81, 'Zn': 0.08}",11.0,11.0,0.0,1,Ba1 Fe1.81 Zn0.08 Co0.11 As2
1483,[23206],Ba1Fe1.83Zn0.06Co0.11As2,Ba1Fe1.83Zn0.06Co0.11As2,"{'As': 2.0, 'Ba': 1.0, 'Co': 0.11, 'Fe': 1.83, 'Zn': 0.06}",17.0,17.0,0.0,1,Ba1 Fe1.83 Zn0.06 Co0.11 As2
1484,[23205],Ba1Fe1.85Zn0.04Co0.11As2,Ba1Fe1.85Zn0.04Co0.11As2,"{'As': 2.0, 'Ba': 1.0, 'Co': 0.11, 'Fe': 1.85, 'Zn': 0.04}",18.5,18.5,0.0,1,Ba1 Fe1.85 Zn0.04 Co0.11 As2
1485,[23204],Ba1Fe1.87Zn0.02Co0.11As2,Ba1Fe1.87Zn0.02Co0.11As2,"{'As': 2.0, 'Ba': 1.0, 'Co': 0.11, 'Fe': 1.87, 'Zn': 0.02}",20.0,20.0,0.0,1,Ba1 Fe1.87 Zn0.02 Co0.11 As2
1486,"[22599, 23203]",Ba1Fe1.89Co0.11As2,Ba1Fe1.89Co0.11As2,"{'As': 2.0, 'Ba': 1.0, 'Co': 0.11, 'Fe': 1.8900000000000001}",25.0,23.25,1.75,2,Ba1 Fe1.89 Co0.11 As2
1487,[22600],Ba1Fe1.885Co0.115As2,Ba1Fe1.885Co0.115As2,"{'As': 2.0, 'Ba': 1.0, 'Co': 0.115, 'Fe': 1.885}",24.3,24.3,0.0,1,Ba1 Fe1.885 Co0.115 As2
1488,"[20959, 21257, 21823]",Ba1Fe1.884Co0.116As2,Ba1Fe1.884Co0.116As2,"{'As': 2.0, 'Ba': 1.0, 'Co': 0.116, 'Fe': 1.884}",23.3,22.9333333333,0.2624669291,3,Ba1 Fe1.884 Co0.116 As2
1489,[23578],Ba1Fe1.86Co0.12Mn0.02As2,Ba1Fe1.86Co0.12Mn0.02As2,"{'As': 2.0, 'Ba': 1.0, 'Co': 0.12, 'Fe': 1.8599999999999999, 'Mn': 0.02}",12.5,12.5,0.0,1,Ba1 Fe1.86 Co0.12 Mn0.02 As2
1490,[20875],Ba1Fe1.878Co0.122As2,Ba1Fe1.878Co0.122As2,"{'As': 2.0, 'Ba': 1.0, 'Co': 0.122, 'Fe': 1.8780000000000001}",24.0,24.0,0.0,1,Ba1 Fe1.878 Co0.122 As2
1491,"[21824, 21825]",Ba1Fe1.874Co0.126As2,Ba1Fe1.874Co0.126As2,"{'As': 2.0, 'Ba': 1.0, 'Co': 0.126, 'Fe': 1.874}",23.5,23.45,0.05,2,Ba1 Fe1.874 Co0.126 As2
1492,[23195],Ba1Fe1.79Zn0.08Co0.13As2,Ba1Fe1.79Zn0.08Co0.13As2,"{'As': 2.0, 'Ba': 1.0, 'Co': 0.13, 'Fe': 1.79, 'Zn': 0.08}",19.0,19.0,0.0,1,Ba1 Fe1.79 Zn0.08 Co0.13 As2
1493,[23194],Ba1Fe1.81Zn0.06Co0.13As2,Ba1Fe1.81Zn0.06Co0.13As2,"{'As': 2.0, 'Ba': 1.0, 'Co': 0.13, 'Fe': 1.81, 'Zn': 0.06}",19.0,19.0,0.0,1,Ba1 Fe1.81 Zn0.06 Co0.13 As2
1494,[23193],Ba1Fe1.83Zn0.04Co0.13As2,Ba1Fe1.83Zn0.04Co0.13As2,"{'As': 2.0, 'Ba': 1.0, 'Co': 0.13, 'Fe': 1.83, 'Zn': 0.04}",20.0,20.0,0.0,1,Ba1 Fe1.83 Zn0.04 Co0.13 As2
1495,[23579],Ba1Fe1.84Co0.13Mn0.03As2,Ba1Fe1.84Co0.13Mn0.03As2,"{'As': 2.0, 'Ba': 1.0, 'Co': 0.13, 'Fe': 1.8399999999999999, 'Mn': 0.03}",8.0,8.0,0.0,1,Ba1 Fe1.84 Co0.13 Mn0.03 As2
1496,[23576],Ba1Fe1.857Co0.13Mn0.013As2,Ba1Fe1.857Co0.13Mn0.013As2,"{'As': 2.0, 'Ba': 1.0, 'Co': 0.13, 'Fe': 1.857, 'Mn': 0.013000000000000001}",18.0,18.0,0.0,1,Ba1 Fe1.857 Co0.13 Mn0.013 As2
1497,[23192],Ba1Fe1.87Co0.13As2,Ba1Fe1.87Co0.13As2,"{'As': 2.0, 'Ba': 1.0, 'Co': 0.13, 'Fe': 1.87}",25.0,25.0,0.0,1,Ba1 Fe1.87 Co0.13 As2
1498,"[22655, 25704, 25705, 25706]",Ba1Fe1.86Co0.14As2,Ba1Fe1.86Co0.14As2,"{'As': 2.0, 'Ba': 1.0, 'Co': 0.14, 'Fe': 1.8599999999999999}",22.5,22.3,0.1870828693,4,Ba1 Fe1.86 Co0.14 As2
1499,"[20943, 20960, 20993, 21248, 21493, 21826, 23253]",Ba1Fe1.852Co0.148As2,Ba1Fe1.852Co0.148As2,"{'As': 2.0, 'Ba': 1.0, 'Co': 0.148, 'Fe': 1.8519999999999999}",23.4,22.7,0.3703280399,7,Ba1 Fe1.852 Co0.148 As2
1500,[23577],Ba1Fe1.832Co0.15Mn0.018As2,Ba1Fe1.832Co0.15Mn0.018As2,"{'As': 2.0, 'Ba': 1.0, 'Co': 0.15, 'Fe': 1.832, 'Mn': 0.018000000000000002}",13.5,13.5,0.0,1,Ba1 Fe1.832 Co0.15 Mn0.018 As2
1501,"[21447, 21993, 22028, 22601]",Ba1Fe1.85Co0.15As2,Ba1Fe1.85Co0.15As2,"{'As': 2.0, 'Ba': 1.0, 'Co': 0.15, 'Fe': 1.85}",25.0,23.525,1.475423668,4,Ba1 Fe1.85 Co0.15 As2
1502,[21258],Ba1Fe1.844Co0.156As2,Ba1Fe1.844Co0.156As2,"{'As': 2.0, 'Ba': 1.0, 'Co': 0.156, 'Fe': 1.8439999999999999}",21.7,21.7,0.0,1,Ba1 Fe1.844 Co0.156 As2
1503,"[21122, 21124, 21269, 23870, 24773]",Ba1Fe1.84Co0.16As2,Ba1Fe1.84Co0.16As2,"{'As': 2.0, 'Ba': 1.0, 'Co': 0.16, 'Fe': 1.8399999999999999}",26.3,22.72,1.7993332097999999,5,Ba1 Fe1.84 Co0.16 As2
1504,[22656],Ba1Fe1.83Co0.17As2,Ba1Fe1.83Co0.17As2,"{'As': 2.0, 'Ba': 1.0, 'Co': 0.17, 'Fe': 1.83}",19.6,19.6,0.0,1,Ba1 Fe1.83 Co0.17 As2
1505,"[21827, 21828]",Ba1Fe1.824Co0.176As2,Ba1Fe1.824Co0.176As2,"{'As': 2.0, 'Ba': 1.0, 'Co': 0.176, 'Fe': 1.824}",21.1,21.05,0.05,2,Ba1 Fe1.824 Co0.176 As2
1506,[22602],Ba1Fe1.82Co0.18As2,Ba1Fe1.82Co0.18As2,"{'As': 2.0, 'Ba': 1.0, 'Co': 0.18, 'Fe': 1.82}",20.7,20.7,0.0,1,Ba1 Fe1.82 Co0.18 As2
1507,"[20666, 20880, 20956, 20961, 21259, 21498, 21788, 21829, 23254]",Ba1Fe1.8Co0.2As2,Ba1Fe1.8Co0.2As2,"{'As': 2.0, 'Ba': 1.0, 'Co': 0.2, 'Fe': 1.8}",25.4,20.2666666667,3.1372316176,9,Ba1 Fe1.8 Co0.2 As2
1508,"[21494, 25357]",Ba1Fe1.784Co0.216As2,Ba1Fe1.784Co0.216As2,"{'As': 2.0, 'Ba': 1.0, 'Co': 0.216, 'Fe': 1.784}",16.0,15.3,0.7000000000000001,2,Ba1 Fe1.784 Co0.216 As2
1509,[20876],Ba1Fe1.782Co0.218As2,Ba1Fe1.782Co0.218As2,"{'As': 2.0, 'Ba': 1.0, 'Co': 0.218, 'Fe': 1.782}",14.1,14.1,0.0,1,Ba1 Fe1.782 Co0.218 As2
1510,[22816],Ba1Fe1.66Zn0.12Co0.22As2,Ba1Fe1.66Zn0.12Co0.22As2,"{'As': 2.0, 'Ba': 1.0, 'Co': 0.22, 'Fe': 1.6600000000000001, 'Zn': 0.12}",4.6,4.6,0.0,1,Ba1 Fe1.66 Zn0.12 Co0.22 As2
1511,[22815],Ba1Fe1.7Zn0.08Co0.22As2,Ba1Fe1.7Zn0.08Co0.22As2,"{'As': 2.0, 'Ba': 1.0, 'Co': 0.22, 'Fe': 1.7000000000000002, 'Zn': 0.08}",8.77,8.77,0.0,1,Ba1 Fe1.7 Zn0.08 Co0.22 As2
1512,[22814],Ba1Fe1.74Zn0.04Co0.22As2,Ba1Fe1.74Zn0.04Co0.22As2,"{'As': 2.0, 'Ba': 1.0, 'Co': 0.22, 'Fe': 1.74, 'Zn': 0.04}",15.82,15.82,0.0,1,Ba1 Fe1.74 Zn0.04 Co0.22 As2
1513,"[22657, 22813]",Ba1Fe1.78Co0.22As2,Ba1Fe1.78Co0.22As2,"{'As': 2.0, 'Ba': 1.0, 'Co': 0.22, 'Fe': 1.78}",18.96,16.23,2.73,2,Ba1 Fe1.78 Co0.22 As2
1514,[22603],Ba1Fe1.776Co0.224As2,Ba1Fe1.776Co0.224As2,"{'As': 2.0, 'Ba': 1.0, 'Co': 0.224, 'Fe': 1.776}",11.1,11.1,0.0,1,Ba1 Fe1.776 Co0.224 As2
1515,[22029],Ba1Fe1.774Co0.226As2,Ba1Fe1.774Co0.226As2,"{'As': 2.0, 'Ba': 1.0, 'Co': 0.226, 'Fe': 1.774}",12.8,12.8,0.0,1,Ba1 Fe1.774 Co0.226 As2
1516,"[20962, 21260, 21495, 23255]",Ba1Fe1.772Co0.228As2,Ba1Fe1.772Co0.228As2,"{'As': 2.0, 'Ba': 1.0, 'Co': 0.228, 'Fe': 1.772}",16.4,11.405,2.9843047767,4,Ba1 Fe1.772 Co0.228 As2
1517,[21123],Ba1Fe1.77Co0.23As2,Ba1Fe1.77Co0.23As2,"{'As': 2.0, 'Ba': 1.0, 'Co': 0.23, 'Fe': 1.77}",16.5,16.5,0.0,1,Ba1 Fe1.77 Co0.23 As2
1518,[22604],Ba1Fe1.76Co0.24As2,Ba1Fe1.76Co0.24As2,"{'As': 2.0, 'Ba': 1.0, 'Co': 0.24, 'Fe': 1.76}",5.1,5.1,0.0,1,Ba1 Fe1.76 Co0.24 As2
1519,[21789],Ba1Fe1.75Co0.25As2,Ba1Fe1.75Co0.25As2,"{'As': 2.0, 'Ba': 1.0, 'Co': 0.25, 'Fe': 1.75}",22.0,22.0,0.0,1,Ba1 Fe1.75 Co0.25 As2
1520,[25358],Ba1Fe1.746Co0.254As2,Ba1Fe1.746Co0.254As2,"{'As': 2.0, 'Ba': 1.0, 'Co': 0.254, 'Fe': 1.746}",8.0,8.0,0.0,1,Ba1 Fe1.746 Co0.254 As2
1521,"[21536, 21790]",Ba1Fe1.73Co0.27As2,Ba1Fe1.73Co0.27As2,"{'As': 2.0, 'Ba': 1.0, 'Co': 0.27, 'Fe': 1.73}",17.1,12.6,4.5,2,Ba1 Fe1.73 Co0.27 As2
1522,[21851],Ba1Fe1.856Cu0.088As2,Ba1Fe1.856Cu0.088As2,"{'As': 2.0, 'Ba': 1.0, 'Cu': 0.088, 'Fe': 1.8559999999999999}",2.15,2.15,0.0,1,Ba1 Fe1.856 Cu0.088 As2
1523,[21712],Ba1Fe0.75Ru1.25As2,Ba1Fe0.75Ru1.25As2,"{'As': 2.0, 'Ba': 1.0, 'Fe': 0.75, 'Ru': 1.25}",0.0,0.0,0.0,1,Ba1 Fe0.75 Ru1.25 As2
1524,[21711],Ba1Fe0.875Ru1.125As2,Ba1Fe0.875Ru1.125As2,"{'As': 2.0, 'Ba': 1.0, 'Fe': 0.875, 'Ru': 1.125}",21.3,21.3,0.0,1,Ba1 Fe0.875 Ru1.125 As2
1525,[21710],Ba1Fe1.125Ru0.875As2,Ba1Fe1.125Ru0.875As2,"{'As': 2.0, 'Ba': 1.0, 'Fe': 1.125, 'Ru': 0.875}",22.5,22.5,0.0,1,Ba1 Fe1.125 Ru0.875 As2
1526,[22863],Ba1Fe1.2Ru0.8As2,Ba1Fe1.2Ru0.8As2,"{'As': 2.0, 'Ba': 1.0, 'Fe': 1.2, 'Ru': 0.8}",5.02,5.02,0.0,1,Ba1 Fe1.2 Ru0.8 As2
1527,[21839],Ba1Fe1.24Ru0.76As2,Ba1Fe1.24Ru0.76As2,"{'As': 2.0, 'Ba': 1.0, 'Fe': 1.24, 'Ru': 0.76}",7.1,7.1,0.0,1,Ba1 Fe1.24 Ru0.76 As2
1528,[21709],Ba1Fe1.25Ru0.75As2,Ba1Fe1.25Ru0.75As2,"{'As': 2.0, 'Ba': 1.0, 'Fe': 1.25, 'Ru': 0.75}",21.0,21.0,0.0,1,Ba1 Fe1.25 Ru0.75 As2
1529,[21807],Ba1Fe1.28Ru0.72As2,Ba1Fe1.28Ru0.72As2,"{'As': 2.0, 'Ba': 1.0, 'Fe': 1.28, 'Ru': 0.72}",8.95,8.95,0.0,1,Ba1 Fe1.28 Ru0.72 As2
1530,"[21835, 21838, 24372]",Ba1Fe1.3Ru0.7As2,Ba1Fe1.3Ru0.7As2,"{'As': 2.0, 'Ba': 1.0, 'Fe': 1.3, 'Ru': 0.7000000000000001}",20.0,19.7,0.2160246899,3,Ba1 Fe1.3 Ru0.7 As2
1531,[22862],Ba1Fe1.32Ru0.68As2,Ba1Fe1.32Ru0.68As2,"{'As': 2.0, 'Ba': 1.0, 'Fe': 1.32, 'Ru': 0.68}",14.5,14.5,0.0,1,Ba1 Fe1.32 Ru0.68 As2
1532,[21806],Ba1Fe1.42Ru0.58As2,Ba1Fe1.42Ru0.58As2,"{'As': 2.0, 'Ba': 1.0, 'Fe': 1.42, 'Ru': 0.58}",15.6,15.6,0.0,1,Ba1 Fe1.42 Ru0.58 As2
1533,[22639],Ba1Fe1.44Ru0.56As2,Ba1Fe1.44Ru0.56As2,"{'As': 2.0, 'Ba': 1.0, 'Fe': 1.44, 'Ru': 0.56}",15.0,15.0,0.0,1,Ba1 Fe1.44 Ru0.56 As2
1534,"[21837, 24371]",Ba1Fe1.48Ru0.52As2,Ba1Fe1.48Ru0.52As2,"{'As': 2.0, 'Ba': 1.0, 'Fe': 1.48, 'Ru': 0.52}",21.2,20.05,1.15,2,Ba1 Fe1.48 Ru0.52 As2
1535,[21708],Ba1Fe1.5Ru0.5As2,Ba1Fe1.5Ru0.5As2,"{'As': 2.0, 'Ba': 1.0, 'Fe': 1.5, 'Ru': 0.5}",0.0,0.0,0.0,1,Ba1 Fe1.5 Ru0.5 As2
1536,"[21805, 25651]",Ba1Fe1.52Ru0.48As2,Ba1Fe1.52Ru0.48As2,"{'As': 2.0, 'Ba': 1.0, 'Fe': 1.52, 'Ru': 0.48}",17.8,16.675,1.125,2,Ba1 Fe1.52 Ru0.48 As2
1537,[22861],Ba1Fe1.55Ru0.45As2,Ba1Fe1.55Ru0.45As2,"{'As': 2.0, 'Ba': 1.0, 'Fe': 1.55, 'Ru': 0.45}",8.18,8.18,0.0,1,Ba1 Fe1.55 Ru0.45 As2
1538,"[21804, 22638, 24373]",Ba1Fe1.58Ru0.42As2,Ba1Fe1.58Ru0.42As2,"{'As': 2.0, 'Ba': 1.0, 'Fe': 1.58, 'Ru': 0.42}",19.2,13.385,5.0770677233,3,Ba1 Fe1.58 Ru0.42 As2
1539,[22729],Ba1Fe1.6Ir0.4As2,Ba1Fe1.6Ir0.4As2,"{'As': 2.0, 'Ba': 1.0, 'Fe': 1.6, 'Ir': 0.4}",24.5,24.5,0.0,1,Ba1 Fe1.6 Ir0.4 As2
1540,[21836],Ba1Fe1.64Ru0.36As2,Ba1Fe1.64Ru0.36As2,"{'As': 2.0, 'Ba': 1.0, 'Fe': 1.6400000000000001, 'Ru': 0.36}",8.43,8.43,0.0,1,Ba1 Fe1.64 Ru0.36 As2
1541,[21803],Ba1Fe1.678Ru0.322As2,Ba1Fe1.678Ru0.322As2,"{'As': 2.0, 'Ba': 1.0, 'Fe': 1.678, 'Ru': 0.322}",9.31,9.31,0.0,1,Ba1 Fe1.678 Ru0.322 As2
1542,[22637],Ba1Fe1.68Ru0.32As2,Ba1Fe1.68Ru0.32As2,"{'As': 2.0, 'Ba': 1.0, 'Fe': 1.6800000000000002, 'Ru': 0.32}",23.0,23.0,0.0,1,Ba1 Fe1.68 Ru0.32 As2
1543,[22728],Ba1Fe1.7Ir0.3As2,Ba1Fe1.7Ir0.3As2,"{'As': 2.0, 'Ba': 1.0, 'Fe': 1.7000000000000002, 'Ir': 0.30000000000000004}",27.0,27.0,0.0,1,Ba1 Fe1.7 Ir0.3 As2
1544,[22417],Ba1Fe1.738Rh0.262As2,Ba1Fe1.738Rh0.262As2,"{'As': 2.0, 'Ba': 1.0, 'Fe': 1.738, 'Rh': 0.262}",8.3,8.3,0.0,1,Ba1 Fe1.738 Rh0.262 As2
1545,[21540],Ba1Fe1.75Pt0.25As2,Ba1Fe1.75Pt0.25As2,"{'As': 2.0, 'Ba': 1.0, 'Fe': 1.75, 'Pt': 0.25}",21.1,21.1,0.0,1,Ba1 Fe1.75 Pt0.25 As2
1546,[21039],Ba1Fe1.77Ni0.23As2,Ba1Fe1.77Ni0.23As2,"{'As': 2.0, 'Ba': 1.0, 'Fe': 1.77, 'Ni': 0.23}",3.5300000000000002,3.5300000000000002,0.0,1,Ba1 Fe1.77 Ni0.23 As2
1547,[24577],Ba1Fe1.78Ni0.22As2,Ba1Fe1.78Ni0.22As2,"{'As': 2.0, 'Ba': 1.0, 'Fe': 1.78, 'Ni': 0.22}",3.4,3.4,0.0,1,Ba1 Fe1.78 Ni0.22 As2
1548,[25447],Ba1Fe1.786Rh0.214As2,Ba1Fe1.786Rh0.214As2,"{'As': 2.0, 'Ba': 1.0, 'Fe': 1.786, 'Rh': 0.214}",13.3,13.3,0.0,1,Ba1 Fe1.786 Rh0.214 As2
1549,[22727],Ba1Fe1.8Ir0.2As2,Ba1Fe1.8Ir0.2As2,"{'As': 2.0, 'Ba': 1.0, 'Fe': 1.8, 'Ir': 0.2}",27.4,27.4,0.0,1,Ba1 Fe1.8 Ir0.2 As2
1550,"[24576, 26211]",Ba1Fe1.8Ni0.2As2,Ba1Fe1.8Ni0.2As2,"{'As': 2.0, 'Ba': 1.0, 'Fe': 1.8, 'Ni': 0.2}",6.4,5.8,0.6000000000000001,2,Ba1 Fe1.8 Ni0.2 As2
1551,[21200],Ba1Fe1.808Rh0.192As2,Ba1Fe1.808Rh0.192As2,"{'As': 2.0, 'Ba': 1.0, 'Fe': 1.808, 'Rh': 0.192}",17.8,17.8,0.0,1,Ba1 Fe1.808 Rh0.192 As2
1552,"[21038, 24575, 26210, 26230]",Ba1Fe1.82Ni0.18As2,Ba1Fe1.82Ni0.18As2,"{'As': 2.0, 'Ba': 1.0, 'Fe': 1.82, 'Ni': 0.18}",17.4,11.425,3.5646703915,4,Ba1 Fe1.82 Ni0.18 As2
1553,[22636],Ba1Fe1.82Ru0.18As2,Ba1Fe1.82Ru0.18As2,"{'As': 2.0, 'Ba': 1.0, 'Fe': 1.82, 'Ru': 0.18}",25.8,25.8,0.0,1,Ba1 Fe1.82 Ru0.18 As2
1554,[22416],Ba1Fe1.848Rh0.152As2,Ba1Fe1.848Rh0.152As2,"{'As': 2.0, 'Ba': 1.0, 'Fe': 1.8479999999999999, 'Rh': 0.152}",22.2,22.2,0.0,1,Ba1 Fe1.848 Rh0.152 As2
1555,"[21720, 22801, 24574, 26209, 26229]",Ba1Fe1.85Ni0.15As2,Ba1Fe1.85Ni0.15As2,"{'As': 2.0, 'Ba': 1.0, 'Fe': 1.85, 'Ni': 0.15}",14.5,14.0,0.3346640106,5,Ba1 Fe1.85 Ni0.15 As2
1556,[21539],Ba1Fe1.85Pt0.15As2,Ba1Fe1.85Pt0.15As2,"{'As': 2.0, 'Ba': 1.0, 'Fe': 1.85, 'Pt': 0.15}",23.4,23.4,0.0,1,Ba1 Fe1.85 Pt0.15 As2
1557,"[21265, 21850, 22427, 23092]",Ba1Fe1.856Ni0.144As2,Ba1Fe1.856Ni0.144As2,"{'As': 2.0, 'Ba': 1.0, 'Fe': 1.8559999999999999, 'Ni': 0.14400000000000002}",7.5,6.185,0.8577149876,4,Ba1 Fe1.856 Ni0.144 As2
1558,[25446],Ba1Fe1.864Rh0.136As2,Ba1Fe1.864Rh0.136As2,"{'As': 2.0, 'Ba': 1.0, 'Fe': 1.8639999999999999, 'Rh': 0.136}",23.3,23.3,0.0,1,Ba1 Fe1.864 Rh0.136 As2
1559,[22422],Ba1Fe1.866Pd0.134As2,Ba1Fe1.866Pd0.134As2,"{'As': 2.0, 'Ba': 1.0, 'Fe': 1.866, 'Pd': 0.134}",7.16,7.16,0.0,1,Ba1 Fe1.866 Pd0.134 As2
1560,"[24573, 26208]",Ba1Fe1.88Ni0.12As2,Ba1Fe1.88Ni0.12As2,"{'As': 2.0, 'Ba': 1.0, 'Fe': 1.88, 'Ni': 0.12}",19.0,18.8,0.2,2,Ba1 Fe1.88 Ni0.12 As2
1561,[21199],Ba1Fe1.886Rh0.114As2,Ba1Fe1.886Rh0.114As2,"{'As': 2.0, 'Ba': 1.0, 'Fe': 1.8860000000000001, 'Rh': 0.114}",24.9,24.9,0.0,1,Ba1 Fe1.886 Rh0.114 As2
1562,"[21264, 21849, 22426, 23091, 24572]",Ba1Fe1.892Ni0.108As2,Ba1Fe1.892Ni0.108As2,"{'As': 2.0, 'Ba': 1.0, 'Fe': 1.892, 'Ni': 0.108}",20.3,15.88,2.3163764806,5,Ba1 Fe1.892 Ni0.108 As2
1563,[22421],Ba1Fe1.894Pd0.106As2,Ba1Fe1.894Pd0.106As2,"{'As': 2.0, 'Ba': 1.0, 'Fe': 1.8940000000000001, 'Pd': 0.106}",13.3,13.3,0.0,1,Ba1 Fe1.894 Pd0.106 As2
1564,"[23784, 24571, 26202, 26207]",Ba1Fe1.9Ni0.1As2,Ba1Fe1.9Ni0.1As2,"{'As': 2.0, 'Ba': 1.0, 'Fe': 1.9, 'Ni': 0.1}",20.3,19.9,0.4183300133,4,Ba1 Fe1.9 Ni0.1 As2
1565,"[21538, 22730, 25900]",Ba1Fe1.9Pt0.1As2,Ba1Fe1.9Pt0.1As2,"{'As': 2.0, 'Ba': 1.0, 'Fe': 1.9, 'Pt': 0.1}",25.2,23.7333333333,1.0370899457,3,Ba1 Fe1.9 Pt0.1 As2
1566,"[21037, 24570]",Ba1Fe1.904Ni0.096As2,Ba1Fe1.904Ni0.096As2,"{'As': 2.0, 'Ba': 1.0, 'Fe': 1.904, 'Ni': 0.096}",20.2,20.05,0.15,2,Ba1 Fe1.904 Ni0.096 As2
1567,[26206],Ba1Fe1.908Ni0.082As2,Ba1Fe1.908Ni0.082As2,"{'As': 2.0, 'Ba': 1.0, 'Fe': 1.908, 'Ni': 0.082}",18.5,18.5,0.0,1,Ba1 Fe1.908 Ni0.082 As2
1568,"[21263, 21848, 22425, 24569]",Ba1Fe1.908Ni0.092As2,Ba1Fe1.908Ni0.092As2,"{'As': 2.0, 'Ba': 1.0, 'Fe': 1.908, 'Ni': 0.092}",19.3,18.6,0.561248608,4,Ba1 Fe1.908 Ni0.092 As2
1569,"[25707, 25708, 25709]",Ba1Fe1.91Ni0.09As2,Ba1Fe1.91Ni0.09As2,"{'As': 2.0, 'Ba': 1.0, 'Fe': 1.9100000000000001, 'Ni': 0.09}",18.9,18.3433333333,0.42773304240000004,3,Ba1 Fe1.91 Ni0.09 As2
1570,[21201],Ba1Fe1.914Pd0.086As2,Ba1Fe1.914Pd0.086As2,"{'As': 2.0, 'Ba': 1.0, 'Fe': 1.9140000000000001, 'Pd': 0.08600000000000001}",18.9,18.9,0.0,1,Ba1 Fe1.914 Pd0.086 As2
1571,"[24568, 25105, 26205, 26228]",Ba1Fe1.915Ni0.085As2,Ba1Fe1.915Ni0.085As2,"{'As': 2.0, 'Ba': 1.0, 'Fe': 1.915, 'Ni': 0.085}",18.2,17.5,0.6041522987,4,Ba1 Fe1.915 Ni0.085 As2
1572,"[22399, 22415]",Ba1Fe1.922Rh0.078As2,Ba1Fe1.922Rh0.078As2,"{'As': 2.0, 'Ba': 1.0, 'Fe': 1.9220000000000002, 'Rh': 0.078}",17.8,15.9,1.9,2,Ba1 Fe1.922 Rh0.078 As2
1573,"[21719, 24567, 26204]",Ba1Fe1.925Ni0.075As2,Ba1Fe1.925Ni0.075As2,"{'As': 2.0, 'Ba': 1.0, 'Fe': 1.925, 'Ni': 0.075}",13.7,13.0333333333,0.6236095645,3,Ba1 Fe1.925 Ni0.075 As2
1574,[22800],Ba1Fe1.93Ni0.07As2,Ba1Fe1.93Ni0.07As2,"{'As': 2.0, 'Ba': 1.0, 'Fe': 1.9300000000000002, 'Ni': 0.07}",17.0,17.0,0.0,1,Ba1 Fe1.93 Ni0.07 As2
1575,"[24566, 26203, 26227]",Ba1Fe1.935Ni0.065As2,Ba1Fe1.935Ni0.065As2,"{'As': 2.0, 'Ba': 1.0, 'Fe': 1.935, 'Ni': 0.065}",11.3,8.9666666667,1.6499158228000002,3,Ba1 Fe1.935 Ni0.065 As2
1576,"[21262, 21847, 22424]",Ba1Fe1.936Ni0.064As2,Ba1Fe1.936Ni0.064As2,"{'As': 2.0, 'Ba': 1.0, 'Fe': 1.936, 'Ni': 0.064}",15.1,14.8333333333,0.2054804668,3,Ba1 Fe1.936 Ni0.064 As2
1577,[22420],Ba1Fe1.94Pd0.06As2,Ba1Fe1.94Pd0.06As2,"{'As': 2.0, 'Ba': 1.0, 'Fe': 1.94, 'Pd': 0.06}",16.4,16.4,0.0,1,Ba1 Fe1.94 Pd0.06 As2
1578,[21036],Ba1Fe1.945Ni0.055As2,Ba1Fe1.945Ni0.055As2,"{'As': 2.0, 'Ba': 1.0, 'Fe': 1.945, 'Ni': 0.055}",7.4,7.4,0.0,1,Ba1 Fe1.945 Ni0.055 As2
1579,[22842],Ba1Fe1.946Mo0.056As2,Ba1Fe1.946Mo0.056As2,"{'As': 2.0, 'Ba': 1.0, 'Fe': 1.9460000000000002, 'Mo': 0.056}",4.9,4.9,0.0,1,Ba1 Fe1.946 Mo0.056 As2
1580,[22419],Ba1Fe1.946Pd0.054As2,Ba1Fe1.946Pd0.054As2,"{'As': 2.0, 'Ba': 1.0, 'Fe': 1.9460000000000002, 'Pd': 0.054}",12.3,12.3,0.0,1,Ba1 Fe1.946 Pd0.054 As2
1581,[22841],Ba1Fe1.948Mo0.052As2,Ba1Fe1.948Mo0.052As2,"{'As': 2.0, 'Ba': 1.0, 'Fe': 1.948, 'Mo': 0.052000000000000005}",7.4,7.4,0.0,1,Ba1 Fe1.948 Mo0.052 As2
1582,"[21261, 21846, 22423]",Ba1Fe1.952Ni0.048As2,Ba1Fe1.952Ni0.048As2,"{'As': 2.0, 'Ba': 1.0, 'Fe': 1.952, 'Ni': 0.048}",4.1,3.4633333333,0.7633406113000001,3,Ba1 Fe1.952 Ni0.048 As2
1583,[22418],Ba1Fe1.958Pd0.042As2,Ba1Fe1.958Pd0.042As2,"{'As': 2.0, 'Ba': 1.0, 'Fe': 1.9580000000000002, 'Pd': 0.042}",4.1,4.1,0.0,1,Ba1 Fe1.958 Pd0.042 As2
1584,[21202],Ba1Fe1.958Rh0.042As2,Ba1Fe1.958Rh0.042As2,"{'As': 2.0, 'Ba': 1.0, 'Fe': 1.9580000000000002, 'Rh': 0.042}",5.41,5.41,0.0,1,Ba1 Fe1.958 Rh0.042 As2
1585,[22840],Ba1Fe1.974Mo0.026As2,Ba1Fe1.974Mo0.026As2,"{'As': 2.0, 'Ba': 1.0, 'Fe': 1.974, 'Mo': 0.026000000000000002}",12.5,12.5,0.0,1,Ba1 Fe1.974 Mo0.026 As2
1586,[21537],Ba1Fe1.98Pt0.02As2,Ba1Fe1.98Pt0.02As2,"{'As': 2.0, 'Ba': 1.0, 'Fe': 1.98, 'Pt': 0.02}",0.0,0.0,0.0,1,Ba1 Fe1.98 Pt0.02 As2
1587,[22839],Ba1Fe1.982Mo0.018As2,Ba1Fe1.982Mo0.018As2,"{'As': 2.0, 'Ba': 1.0, 'Fe': 1.982, 'Mo': 0.018000000000000002}",16.7,16.7,0.0,1,Ba1 Fe1.982 Mo0.018 As2
1588,[22838],Ba1Fe1.988Mo0.012As2,Ba1Fe1.988Mo0.012As2,"{'As': 2.0, 'Ba': 1.0, 'Fe': 1.988, 'Mo': 0.012}",16.3,16.3,0.0,1,Ba1 Fe1.988 Mo0.012 As2
1589,"[20808, 20954, 21046, 21047, 21713, 21782, 21926, 22635]",Ba1Fe2As2,Ba1Fe2As2,"{'As': 2.0, 'Ba': 1.0, 'Fe': 2.0}",35.0,22.275,11.175391492,8,Ba1 Fe2 As2
1590,[25398],Ba1Ir2As2,Ba1Ir2As2,"{'As': 2.0, 'Ba': 1.0, 'Ir': 2.0}",2.4,2.4,0.0,1,Ba1 Ir2 As2
1591,"[20994, 22227, 22228, 24273]",Ba1Ni2As2,Ba1Ni2As2,"{'As': 2.0, 'Ba': 1.0, 'Ni': 2.0}",1.095,0.7575000000000001,0.199515037,4,Ba1 Ni2 As2
1592,"[23461, 25176, 25300, 25315, 25625, 25766]",Ba1Pd2As2,Ba1Pd2As2,"{'As': 2.0, 'Ba': 1.0, 'Pd': 2.0}",3.85,3.4833333333,0.6755656067,6,Ba1 Pd2 As2
1593,"[24806, 24807, 24925, 24926, 24927]",Ba1Pt2As2,Ba1Pt2As2,"{'As': 2.0, 'Ba': 1.0, 'Pt': 2.0}",3.8,2.114,0.8732376538000001,5,Ba1 Pt2 As2
1594,[22414],Fe2As2Ba4Sc3O7.5,Fe2As2Ba4Sc3O7.5,"{'As': 2.0, 'Ba': 4.0, 'Fe': 2.0, 'O': 7.5, 'Sc': 3.0}",11.0,11.0,0.0,1,Fe2 As2 Ba4 Sc3 O7.5
1595,[22571],Ca0.25Na0.75Fe2As2,Ca0.25Na0.75Fe2As2,"{'As': 2.0, 'Ca': 0.25, 'Fe': 2.0, 'Na': 0.75}",33.4,33.4,0.0,1,Ca0.25 Na0.75 Fe2 As2
1596,[23110],Ca0.32Na0.68Fe2As2,Ca0.32Na0.68Fe2As2,"{'As': 2.0, 'Ca': 0.32, 'Fe': 2.0, 'Na': 0.68}",33.0,33.0,0.0,1,Ca0.32 Na0.68 Fe2 As2
1597,[22667],Ca0.33Na0.66Fe2As2,Ca0.33Na0.66Fe2As2,"{'As': 2.0, 'Ca': 0.33, 'Fe': 2.0, 'Na': 0.66}",33.0,33.0,0.0,1,Ca0.33 Na0.66 Fe2 As2
1598,[22702],Ca0.34Na0.66Fe2As2,Ca0.34Na0.66Fe2As2,"{'As': 2.0, 'Ca': 0.34, 'Fe': 2.0, 'Na': 0.66}",34.0,34.0,0.0,1,Ca0.34 Na0.66 Fe2 As2
1599,[22570],Ca0.4Na0.6Fe2As2,Ca0.4Na0.6Fe2As2,"{'As': 2.0, 'Ca': 0.4, 'Fe': 2.0, 'Na': 0.6000000000000001}",25.0,25.0,0.0,1,Ca0.4 Na0.6 Fe2 As2
1600,[22094],Eu0.5Ca0.5Fe2As2,Eu0.5Ca0.5Fe2As2,"{'As': 2.0, 'Ca': 0.5, 'Eu': 0.5, 'Fe': 2.0}",24.0,24.0,0.0,1,Eu0.5 Ca0.5 Fe2 As2
1601,"[22569, 22591, 22701, 22989, 22990]",Ca0.5Na0.5Fe2As2,Ca0.5Na0.5Fe2As2,"{'As': 2.0, 'Ca': 0.5, 'Fe': 2.0, 'Na': 0.5}",22.0,19.72,1.3541048704,5,Ca0.5 Na0.5 Fe2 As2
1602,[22584],Ca0.6Na0.4Fe2As2,Ca0.6Na0.4Fe2As2,"{'As': 2.0, 'Ca': 0.6000000000000001, 'Fe': 2.0, 'Na': 0.4}",21.0,21.0,0.0,1,Ca0.6 Na0.4 Fe2 As2
1603,[22700],Ca0.64Na0.36Fe2As2,Ca0.64Na0.36Fe2As2,"{'As': 2.0, 'Ca': 0.64, 'Fe': 2.0, 'Na': 0.36}",17.0,17.0,0.0,1,Ca0.64 Na0.36 Fe2 As2
1604,[22901],Ca0.67Sr0.33Fe2As2,Ca0.67Sr0.33Fe2As2,"{'As': 2.0, 'Ca': 0.67, 'Fe': 2.0, 'Sr': 0.33}",22.0,22.0,0.0,1,Ca0.67 Sr0.33 Fe2 As2
1605,[22853],Ca0.719La0.281Fe2As2,Ca0.719La0.281Fe2As2,"{'As': 2.0, 'Ca': 0.719, 'Fe': 2.0, 'La': 0.281}",31.7,31.7,0.0,1,Ca0.719 La0.281 Fe2 As2
1606,[25243],Ca0.73La0.27Fe1As2,Ca0.73La0.27Fe1As2,"{'As': 2.0, 'Ca': 0.73, 'Fe': 1.0, 'La': 0.27}",25.05,25.05,0.0,1,Ca0.73 La0.27 Fe1 As2